ITEM: TIMESTEP
1000
ITEM: NUMBER OF ATOMS
243
ITEM: BOX BOUNDS pp pp pp
0.0000000000000000e+00 1.8000000000000000e+02
0.0000000000000000e+00 1.8000000000000000e+02
0.0000000000000000e+00 1.8000000000000000e+02
ITEM: ATOMS id type xs ys zs ix iy iz
2 1 0.0575372 0.993103 0.990027 0 -1 -1
4 1 0.0791607 0.991651 0.0165558 0 -1 0
6 2 0.105558 0.971515 0.0104029 0 -1 0
8 2 0.136499 0.980748 0.997376 0 -1 -1
83 1 0.38384 0.00389015 0.991644 0 0 -1
85 1 0.417992 0.9901 0.995861 0 -1 -1
87 2 0.448103 0.00486669 0.997649 0 0 -1
89 2 0.482407 0.995419 0.99166 0 -1 -1
164 1 0.719771 0.996159 0.996678 0 -1 -1
166 1 0.747207 0.994347 0.990408 0 -1 -1
168 2 0.772277 0.998504 0.00964922 0 -1 0
170 2 0.805422 0.984667 0.0132003 0 -1 0
28 1 0.0412844 0.328545 0.986405 0 0 -1
30 1 0.0677956 0.337682 0.994992 0 0 -1
32 2 0.0949921 0.324572 0.00784892 0 0 0
34 2 0.132169 0.322807 0.0123688 0 0 0
36 2 0.141605 0.318124 0.0148079 0 0 0
109 1 0.367465 0.333767 0.00466796 0 0 0
111 1 0.395019 0.323199 0.00411499 0 0 0
113 2 0.426354 0.316659 0.00709094 0 0 0
115 2 0.464276 0.325674 0.00326129 0 0 0
117 2 0.484597 0.332504 0.0247612 0 0 0
190 1 0.696702 0.334982 0.982194 0 0 -1
192 1 0.728024 0.33232 0.984672 0 0 -1
194 2 0.763024 0.333402 0.990071 0 0 -1
196 2 0.785659 0.341608 0.00617927 0 0 0
198 2 0.811724 0.323356 0.993825 0 0 -1
29 1 0.0594838 0.324205 0.985436 0 0 -1
31 1 0.0837921 0.339808 0.00327156 0 0 0
33 2 0.113268 0.324327 0.0103874 0 0 0
35 2 0.143559 0.321878 0.996595 0 0 -1
110 1 0.383686 0.336801 0.996853 0 0 -1
112 1 0.410404 0.322611 0.0148862 0 0 0
114 2 0.444779 0.323023 0.0036737 0 0 0
116 2 0.478852 0.319789 0.0130834 0 0 0
191 1 0.711435 0.331934 0.993634 0 0 -1
193 1 0.74406 0.326806 0.991612 0 0 -1
195 2 0.782541 0.332387 0.990596 0 0 -1
197 2 0.80243 0.336877 0.0030086 0 0 0
55 1 0.0581713 0.673991 0.99516 0 0 -1
57 1 0.0702065 0.669067 0.00353121 0 0 0
59 2 0.0956073 0.666075 0.986078 0 0 -1
61 2 0.126537 0.665484 0.00403007 0 0 0
63 2 0.157196 0.661016 0.00326191 0 0 0
136 1 0.373244 0.659613 0.00784733 0 0 0
138 1 0.402707 0.664695 0.00470433 0 0 0
140 2 0.436877 0.661877 0.991652 0 0 -1
142 2 0.467129 0.657617 0.00972887 0 0 0
144 2 0.496414 0.648421 0.00156987 0 0 0
217 1 0.712844 0.658662 0.011963 0 0 0
219 1 0.729102 0.666103 0.00291569 0 0 0
221 2 0.761151 0.664763 0.00496681 0 0 0
223 2 0.785478 0.663831 0.983621 0 0 -1
225 2 0.816779 0.655184 0.996165 0 0 -1
56 1 0.0538732 0.667184 0.0119802 0 0 0
58 1 0.0787315 0.658852 0.989764 0 0 -1
60 2 0.110881 0.672852 0.996081 0 0 -1
62 2 0.141824 0.667034 0.994416 0 0 -1
137 1 0.390288 0.651863 0.00932076 0 0 0
139 1 0.419648 0.666437 0.996347 0 0 -1
141 2 0.45439 0.663956 0.997777 0 0 -1
143 2 0.485337 0.656082 0.0144557 0 0 0
218 1 0.718269 0.654141 0.994898 0 0 -1
220 1 0.744415 0.673955 0.00780728 0 0 0
222 2 0.770671 0.655818 0.990845 0 0 -1
224 2 0.804356 0.665701 0.987665 0 0 -1
1 1 0.0391992 0.986055 0.986754 0 -1 -1
3 1 0.065465 0.99794 0.00628631 0 -1 0
5 2 0.087606 0.977609 0.00809492 0 -1 0
7 2 0.11913 0.982148 0.00350505 0 -1 0
9 2 0.151696 0.98621 0.989397 0 -1 -1
82 1 0.371295 0.992893 0.981598 0 -1 -1
84 1 0.402247 0.00139108 0.992299 0 0 -1
86 2 0.436079 0.992134 0.00184311 0 -1 0
88 2 0.467097 0.00048248 0.000307445 0 0 0
90 2 0.480701 0.00560162 0.00651986 0 0 0
163 1 0.703712 0.00326318 0.989638 0 0 -1
165 1 0.735655 0.00530086 0.999006 0 0 -1
167 2 0.755079 0.992573 0.00590022 0 -1 0
169 2 0.788922 0.988722 0.00658971 0 -1 0
171 2 0.820711 0.985272 0.023956 0 -1 0
11 1 0.0550489 0.00716813 0.320239 0 0 0
13 1 0.0797431 0.0043586 0.321685 0 0 0
15 2 0.11422 0.00414294 0.323193 0 0 0
17 2 0.139635 0.982827 0.329715 0 -1 0
92 1 0.386918 0.00302679 0.335821 0 0 0
94 1 0.424085 0.992807 0.33784 0 -1 0
96 2 0.452661 0.00829637 0.319942 0 0 0
98 2 0.464728 0.998246 0.31597 0 -1 0
173 1 0.717172 0.00377151 0.331334 0 0 0
175 1 0.751782 0.00581207 0.327928 0 0 0
177 2 0.781531 0.00196553 0.337772 0 0 0
179 2 0.811211 0.988664 0.337764 0 -1 0
37 1 0.0504626 0.327355 0.332869 0 0 0
39 1 0.0607883 0.342524 0.341511 0 0 0
41 2 0.0919725 0.3305 0.331439 0 0 0
43 2 0.12158 0.333574 0.333033 0 0 0
45 2 0.158124 0.324789 0.328153 0 0 0
118 1 0.392721 0.330335 0.336238 0 0 0
120 1 0.402085 0.333507 0.324945 0 0 0
122 2 0.434523 0.327436 0.338461 0 0 0
124 2 0.456439 0.321955 0.345558 0 0 0
126 2 0.481824 0.319871 0.329467 0 0 0
199 1 0.70554 0.342089 0.339074 0 0 0
201 1 0.733479 0.321243 0.330663 0 0 0
203 2 0.768962 0.321656 0.335113 0 0 0
205 2 0.791882 0.320329 0.326774 0 0 0
207 2 0.826264 0.325779 0.331886 0 0 0
38 1 0.0640968 0.324516 0.345887 0 0 0
40 1 0.0750866 0.330376 0.3387 0 0 0
42 2 0.10698 0.334688 0.321782 0 0 0
44 2 0.141496 0.333756 0.330556 0 0 0
119 1 0.384109 0.335843 0.319933 0 0 0
121 1 0.41738 0.323682 0.331956 0 0 0
123 2 0.451006 0.335331 0.334046 0 0 0
125 2 0.473185 0.313203 0.34477 0 0 0
200 1 0.717352 0.332254 0.327487 0 0 0
202 1 0.751044 0.324712 0.337409 0 0 0
204 2 0.777695 0.331549 0.323639 0 0 0
206 2 0.809651 0.324976 0.323733 0 0 0
64 1 0.0365259 0.660259 0.34132 0 0 0
66 1 0.0658283 0.662432 0.336171 0 0 0
68 2 0.0979173 0.676851 0.347885 0 0 0
70 2 0.118648 0.66339 0.324043 0 0 0
72 2 0.126481 0.693691 0.31967 0 0 0
145 1 0.375345 0.665575 0.350301 0 0 0
147 1 0.400833 0.670862 0.323545 0 0 0
149 2 0.430973 0.656979 0.336932 0 0 0
151 2 0.461697 0.670857 0.325767 0 0 0
153 2 0.484813 0.666272 0.345274 0 0 0
226 1 0.707867 0.647151 0.352891 0 0 0
228 1 0.723474 0.658468 0.332923 0 0 0
230 2 0.756129 0.652661 0.332258 0 0 0
232 2 0.791385 0.653178 0.330944 0 0 0
234 2 0.813153 0.671634 0.345604 0 0 0
65 1 0.0484947 0.671923 0.333929 0 0 0
67 1 0.0816191 0.669879 0.343203 0 0 0
69 2 0.112267 0.670674 0.338747 0 0 0
71 2 0.129808 0.677447 0.3288 0 0 0
146 1 0.391466 0.667092 0.340056 0 0 0
148 1 0.414029 0.658549 0.329248 0 0 0
150 2 0.444623 0.667502 0.332415 0 0 0
152 2 0.479105 0.67743 0.330166 0 0 0
227 1 0.709909 0.66348 0.345865 0 0 0
229 1 0.74079 0.658795 0.340612 0 0 0
231 2 0.773599 0.65251 0.337805 0 0 0
233 2 0.809046 0.660894 0.331003 0 0 0
10 1 0.049696 0.988997 0.315218 0 -1 0
12 1 0.0664478 0.00469221 0.334815 0 0 0
14 2 0.0971119 0.998063 0.325632 0 -1 0
16 2 0.124059 0.992652 0.335111 0 -1 0
18 2 0.144946 0.979696 0.347851 0 -1 0
91 1 0.370789 0.991612 0.3348 0 -1 0
93 1 0.406521 0.999414 0.33583 0 -1 0
95 2 0.435644 0.00470848 0.329536 0 0 0
97 2 0.467899 0.0161524 0.31169 0 0 0
99 2 0.480809 0.990575 0.320374 0 -1 0
172 1 0.705785 0.987755 0.330062 0 -1 0
174 1 0.735251 0.00252236 0.336582 0 0 0
176 2 0.764932 0.00919904 0.341029 0 0 0
178 2 0.794222 0.989304 0.343237 0 -1 0
180 2 0.830328 0.992659 0.336686 0 -1 0
20 1 0.0518375 0.00331499 0.676663 0 0 0
22 1 0.0699537 0.997188 0.662 0 -1 0
24 2 0.103336 0.997093 0.664632 0 -1 0
26 2 0.132409 0.977404 0.65723 0 -1 0
101 1 0.380795 0.0032515 0.672851 0 0 0
103 1 0.416005 0.0132084 0.671375 0 0 0
105 2 0.446183 0.000435207 0.673143 0 0 0
107 2 0.474675 0.00472664 0.658083 0 0 0
182 1 0.709543 0.004098 0.659228 0 0 0
184 1 0.739456 0.988837 0.666681 0 -1 0
186 2 0.77634 0.995375 0.664472 0 -1 0
188 2 0.81134 0.987542 0.665296 0 -1 0
46 1 0.0453258 0.32914 0.672732 0 0 0
48 1 0.0765453 0.330686 0.658023 0 0 0
50 2 0.098175 0.344894 0.671931 0 0 0
52 2 0.130297 0.328017 0.661627 0 0 0
54 2 0.15401 0.320282 0.672174 0 0 0
127 1 0.376306 0.32907 0.682652 0 0 0
129 1 0.391272 0.335844 0.674928 0 0 0
131 2 0.419729 0.335179 0.668684 0 0 0
133 2 0.449946 0.33376 0.660219 0 0 0
135 2 0.476589 0.318302 0.679162 0 0 0
208 1 0.703083 0.332886 0.646196 0 0 0
210 1 0.734011 0.324487 0.665665 0 0 0
212 2 0.767631 0.337153 0.665952 0 0 0
214 2 0.792147 0.319735 0.662194 0 0 0
216 2 0.819124 0.330517 0.657756 0 0 0
47 1 0.0573721 0.330761 0.658399 0 0 0
49 1 0.0828349 0.335152 0.675123 0 0 0
51 2 0.112756 0.336207 0.662594 0 0 0
53 2 0.135687 0.321138 0.677595 0 0 0
128 1 0.374469 0.339213 0.665955 0 0 0
130 1 0.404635 0.324651 0.668977 0 0 0
132 2 0.436561 0.343575 0.669943 0 0 0
134 2 0.463367 0.321299 0.665902 0 0 0
209 1 0.720309 0.32844 0.653965 0 0 0
211 1 0.751285 0.330768 0.670552 0 0 0
213 2 0.781639 0.333329 0.654257 0 0 0
215 2 0.805668 0.318902 0.64749 0 0 0
73 1 0.0375082 0.655157 0.665285 0 0 0
75 1 0.0719076 0.664171 0.668891 0 0 0
77 2 0.106846 0.6682 0.665281 0 0 0
79 2 0.140758 0.660443 0.671992 0 0 0
81 2 0.171571 0.660012 0.675629 0 0 0
154 1 0.379995 0.661891 0.682189 0 0 0
156 1 0.391954 0.663307 0.658158 0 0 0
158 2 0.42521 0.664027 0.675174 0 0 0
160 2 0.461902 0.668642 0.669519 0 0 0
162 2 0.493109 0.658049 0.673482 0 0 0
235 1 0.715238 0.663909 0.657542 0 0 0
237 1 0.730146 0.663154 0.665404 0 0 0
239 2 0.763752 0.655351 0.66892 0 0 0
241 2 0.795079 0.669741 0.677736 0 0 0
243 2 0.82614 0.666683 0.665578 0 0 0
74 1 0.0557093 0.655045 0.669282 0 0 0
76 1 0.0903409 0.662366 0.671481 0 0 0
78 2 0.124955 0.663606 0.661491 0 0 0
80 2 0.156604 0.669517 0.671836 0 0 0
155 1 0.377105 0.654612 0.665758 0 0 0
157 1 0.410252 0.659008 0.664303 0 0 0
159 2 0.443334 0.666094 0.670665 0 0 0
161 2 0.480159 0.670998 0.669389 0 0 0
236 1 0.715135 0.664884 0.677294 0 0 0
238 1 0.748609 0.664275 0.665269 0 0 0
240 2 0.776513 0.665655 0.678658 0 0 0
242 2 0.809986 0.658536 0.672995 0 0 0
19 1 0.0405445 0.990176 0.684284 0 -1 0
21 1 0.0541683 0.987951 0.663894 0 -1 0
23 2 0.086028 0.996398 0.670592 0 -1 0
25 2 0.119468 0.991316 0.657735 0 -1 0
27 2 0.150058 0.980064 0.653573 0 -1 0
100 1 0.365266 0.00912746 0.680119 0 0 0
102 1 0.397013 0.0124436 0.671837 0 0 0
104 2 0.434585 0.0151638 0.676784 0 0 0
106 2 0.459122 0.0138893 0.667802 0 0 0
108 2 0.488112 0.0142183 0.667962 0 0 0
181 1 0.695009 0.994976 0.667328 0 -1 0
183 1 0.724117 0.992049 0.657025 0 -1 0
185 2 0.757852 0.995098 0.665714 0 -1 0
187 2 0.794329 0.990018 0.659207 0 -1 0
189 2 0.809739 0.971577 0.676023 0 -1 0
ITEM: TIMESTEP
2000
ITEM: NUMBER OF ATOMS
243
ITEM: BOX BOUNDS pp pp pp
0.0000000000000000e+00 1.8000000000000000e+02
0.0000000000000000e+00 1.8000000000000000e+02
0.0000000000000000e+00 1.8000000000000000e+02
ITEM: ATOMS id type xs ys zs ix iy iz
90 2 0.485968 0.995666 0.0165284 0 -1 0
32 2 0.100547 0.338524 0.0220413 0 0 0
34 2 0.131084 0.327252 0.0184593 0 0 0
36 2 0.135485 0.329946 0.00827717 0 0 0
33 2 0.115143 0.333418 0.0104023 0 0 0
111 1 0.3993 0.33807 0.00486541 0 0 0
113 2 0.433865 0.326723 0.000739352 0 0 0
112 1 0.416141 0.328599 0.00514295 0 0 0
115 2 0.442509 0.322963 0.0201078 0 0 0
114 2 0.452411 0.328044 0.00501542 0 0 0
116 2 0.456889 0.334827 0.0263172 0 0 0
117 2 0.474834 0.328859 0.0309585 0 0 0
31 1 0.0833201 0.330961 0.0167209 0 0 0
109 1 0.372449 0.331892 0.014122 0 0 0
196 2 0.780027 0.321625 0.00691146 0 0 0
197 2 0.797919 0.322146 0.00194304 0 0 0
61 2 0.129608 0.662591 0.0117045 0 0 0
63 2 0.140185 0.651722 0.0037985 0 0 0
136 1 0.37992 0.655181 1.00091 0 0 -1
138 1 0.408382 0.65308 0.0154754 0 0 0
137 1 0.398793 0.656074 -0.000470322 0 0 0
142 2 0.45042 0.672235 0.994247 0 0 -1
144 2 0.482171 0.669301 0.994211 0 0 -1
143 2 0.466896 0.680639 0.99695 0 0 -1
217 1 0.734785 0.660248 0.00829265 0 0 0
219 1 0.737375 0.662046 0.989322 0 0 -1
221 2 0.758692 0.666605 0.990563 0 0 -1
57 1 0.0727038 0.659416 0.00124251 0 0 0
56 1 0.0609622 0.669633 0.0125028 0 0 0
220 1 0.746654 0.664085 0.00510692 0 0 0
3 1 0.0873943 0.00329632 0.00237776 0 0 0
4 1 0.080574 0.99559 0.0188104 0 -1 0
6 2 0.103414 0.968531 0.0169012 0 -1 0
5 2 0.0963732 0.985806 0.0216489 0 -1 0
7 2 0.121697 0.963297 0.0170554 0 -1 0
86 2 0.426243 0.00381436 0.995366 0 0 -1
88 2 0.458559 0.988718 0.99764 0 -1 -1
168 2 0.777108 0.00600612 0.00197658 0 0 0
167 2 0.774942 0.0138 0.0197713 0 0 0
170 2 0.800797 0.990387 0.0224644 0 -1 0
169 2 0.793307 0.00521754 0.0128146 0 0 0
171 2 0.815678 0.994364 0.0330007 0 -1 0
11 1 0.0476286 0.00858294 0.321319 0 0 0
13 1 0.0823791 0.00782013 0.331451 0 0 0
15 2 0.106476 0.990726 0.329792 0 -1 0
95 2 0.440372 0.998675 0.3212 0 -1 0
96 2 0.455552 0.996016 0.330458 0 -1 0
97 2 0.461536 0.00530699 0.314114 0 0 0
173 1 0.733175 0.985692 0.342069 0 -1 0
175 1 0.753 0.012377 0.344171 0 0 0
37 1 0.0627288 0.318939 0.326816 0 0 0
41 2 0.103923 0.333215 0.343947 0 0 0
45 2 0.155013 0.330761 0.319574 0 0 0
120 1 0.397526 0.322469 0.313864 0 0 0
121 1 0.412627 0.32267 0.325975 0 0 0
126 2 0.488518 0.330313 0.328408 0 0 0
201 1 0.737865 0.337085 0.335796 0 0 0
200 1 0.722226 0.338356 0.347834 0 0 0
205 2 0.786845 0.332798 0.323548 0 0 0
206 2 0.796453 0.322293 0.335487 0 0 0
42 2 0.113153 0.333307 0.327459 0 0 0
43 2 0.127481 0.335622 0.339814 0 0 0
44 2 0.137362 0.334111 0.324244 0 0 0
119 1 0.38581 0.315084 0.326768 0 0 0
204 2 0.772149 0.322043 0.329737 0 0 0
70 2 0.102531 0.673303 0.343209 0 0 0
148 1 0.419967 0.68538 0.339883 0 0 0
230 2 0.759323 0.63306 0.343448 0 0 0
232 2 0.790869 0.643105 0.338432 0 0 0
233 2 0.803158 0.657634 0.339152 0 0 0
72 2 0.103831 0.692649 0.311961 0 0 0
71 2 0.103712 0.684223 0.328164 0 0 0
147 1 0.403236 0.678082 0.333603 0 0 0
151 2 0.455511 0.651926 0.333975 0 0 0
152 2 0.46479 0.667825 0.33753 0 0 0
10 1 0.0359843 0.0173083 0.310633 0 0 0
14 2 0.0980447 0.00479166 0.321084 0 0 0
17 2 0.133449 0.984906 0.350422 0 -1 0
98 2 0.467332 0.999237 0.296494 0 -1 0
99 2 0.472945 0.984698 0.307658 0 -1 0
172 1 0.739258 0.978161 0.325706 0 -1 0
12 1 0.0645793 0.00679754 0.327541 0 0 0
92 1 0.403855 0.985127 0.322483 0 -1 0
93 1 0.406749 0.00205241 0.328325 0 0 0
174 1 0.741981 0.000142233 0.33438 0 0 0
176 2 0.770769 0.0067515 0.339603 0 0 0
177 2 0.785978 0.99617 0.339328 0 -1 0
38 1 0.0622382 0.328532 0.34331 0 0 0
40 1 0.0871018 0.324743 0.341982 0 0 0
118 1 0.402418 0.324039 0.327089 0 0 0
122 2 0.430785 0.326743 0.332787 0 0 0
124 2 0.458401 0.31769 0.345991 0 0 0
125 2 0.473446 0.322927 0.336742 0 0 0
203 2 0.758554 0.324764 0.341821 0 0 0
202 1 0.746841 0.324191 0.326562 0 0 0
207 2 0.79119 0.318895 0.353456 0 0 0
39 1 0.0749264 0.331288 0.328843 0 0 0
123 2 0.446438 0.332314 0.341494 0 0 0
199 1 0.71392 0.35464 0.34252 0 0 0
64 1 0.0533098 0.662425 0.350948 0 0 0
66 1 0.0599113 0.661322 0.340042 0 0 0
145 1 0.39539 0.659636 0.310644 0 0 0
149 2 0.435482 0.67643 0.340031 0 0 0
226 1 0.707163 0.636087 0.337926 0 0 0
228 1 0.729326 0.648165 0.354579 0 0 0
227 1 0.710341 0.650384 0.348958 0 0 0
229 1 0.746538 0.639743 0.354001 0 0 0
231 2 0.776271 0.631672 0.334915 0 0 0
65 1 0.0546486 0.679419 0.343709 0 0 0
68 2 0.0732088 0.684088 0.333107 0 0 0
67 1 0.0782478 0.668367 0.340732 0 0 0
69 2 0.0838366 0.671237 0.340906 0 0 0
146 1 0.394754 0.660796 0.329466 0 0 0
150 2 0.439462 0.65923 0.342373 0 0 0
153 2 0.473995 0.657624 0.350909 0 0 0
234 2 0.820384 0.663049 0.342259 0 0 0
16 2 0.124067 0.990666 0.336078 0 -1 0
18 2 0.115768 0.981952 0.343278 0 -1 0
91 1 0.392254 0.985419 0.337647 0 -1 0
94 1 0.424587 0.00643994 0.322671 0 0 0
179 2 0.805226 0.00219382 0.330509 0 0 0
178 2 0.801816 0.986758 0.339772 0 -1 0
180 2 0.816857 0.00671583 0.3166 0 0 0
107 2 0.487795 0.0239893 0.672521 0 0 0
182 1 0.727866 0.00153069 0.658188 0 0 0
47 1 0.0591268 0.335762 0.687709 0 0 0
48 1 0.0749185 0.336894 0.676687 0 0 0
52 2 0.119317 0.318448 0.668265 0 0 0
134 2 0.457817 0.337695 0.658089 0 0 0
208 1 0.713668 0.333415 0.674745 0 0 0
210 1 0.738609 0.34634 0.664545 0 0 0
209 1 0.723811 0.33486 0.659673 0 0 0
214 2 0.789365 0.331018 0.660758 0 0 0
213 2 0.777662 0.32046 0.673169 0 0 0
215 2 0.802994 0.326497 0.648553 0 0 0
216 2 0.802642 0.340099 0.661804 0 0 0
51 2 0.124165 0.331789 0.655249 0 0 0
133 2 0.44522 0.327177 0.668445 0 0 0
73 1 0.0382456 0.659945 0.677052 0 0 0
78 2 0.126036 0.673109 0.674238 0 0 0
156 1 0.402773 0.660133 0.663767 0 0 0
155 1 0.384047 0.657386 0.663665 0 0 0
157 1 0.412887 0.676121 0.660454 0 0 0
235 1 0.698239 0.640968 0.674447 0 0 0
238 1 0.752021 0.650323 0.67556 0 0 0
77 2 0.1075 0.669808 0.673163 0 0 0
243 2 0.791349 0.68958 0.68182 0 0 0
22 1 0.0787304 0.980449 0.663784 0 -1 0
21 1 0.0612393 0.986435 0.669604 0 -1 0
24 2 0.108984 0.98433 0.653798 0 -1 0
26 2 0.127103 0.0135688 0.6544 0 0 0
25 2 0.123772 0.995076 0.657559 0 -1 0
27 2 0.131094 0.995801 0.64696 0 -1 0
181 1 0.721273 0.991778 0.672152 0 -1 0
183 1 0.739807 0.987144 0.655569 0 -1 0
186 2 0.766427 0.97316 0.669046 0 -1 0
188 2 0.780221 0.984439 0.674959 0 -1 0
187 2 0.78307 0.971544 0.661489 0 -1 0
20 1 0.0548318 0.991792 0.685975 0 -1 0
100 1 0.38394 0.00440079 0.679444 0 0 0
101 1 0.401225 -0.000361165 0.675699 0 0 0
102 1 0.418476 0.00276246 0.683512 0 0 0
103 1 0.436771 0.998391 0.679873 0 -1 0
104 2 0.450754 0.00933791 0.671276 0 0 0
105 2 0.46697 0.0201501 0.66834 0 0 0
106 2 0.477453 0.0111782 0.681139 0 0 0
108 2 0.503934 0.0147713 0.675742 0 0 0
46 1 0.0481253 0.327077 0.675085 0 0 0
53 2 0.135998 0.321815 0.660621 0 0 0
54 2 0.145511 0.331849 0.673931 0 0 0
127 1 0.38377 0.347852 0.67516 0 0 0
130 1 0.416324 0.346654 0.697573 0 0 0
135 2 0.473206 0.340469 0.647833 0 0 0
211 1 0.7537 0.33805 0.672221 0 0 0
50 2 0.106794 0.337909 0.661324 0 0 0
49 1 0.0943876 0.33622 0.674028 0 0 0
129 1 0.398363 0.345688 0.693327 0 0 0
128 1 0.382182 0.337772 0.690081 0 0 0
131 2 0.416636 0.337333 0.681515 0 0 0
132 2 0.426504 0.324628 0.671313 0 0 0
212 2 0.767082 0.33201 0.684035 0 0 0
75 1 0.0723282 0.665554 0.664838 0 0 0
74 1 0.057129 0.660111 0.674949 0 0 0
76 1 0.0896385 0.662807 0.672124 0 0 0
79 2 0.143759 0.672062 0.680583 0 0 0
81 2 0.174493 0.661835 0.683962 0 0 0
154 1 0.390464 0.64376 0.674931 0 0 0
158 2 0.420456 0.659125 0.664111 0 0 0
159 2 0.438827 0.657511 0.66194 0 0 0
162 2 0.46408 0.682064 0.65558 0 0 0
237 1 0.734366 0.644301 0.672195 0 0 0
236 1 0.716162 0.6486 0.67675 0 0 0
239 2 0.753875 0.666429 0.665122 0 0 0
240 2 0.770526 0.666467 0.674024 0 0 0
242 2 0.805005 0.679932 0.672371 0 0 0
80 2 0.158366 0.669876 0.691457 0 0 0
160 2 0.4551 0.66127 0.671471 0 0 0
161 2 0.46675 0.677508 0.673591 0 0 0
241 2 0.787233 0.674224 0.677761 0 0 0
19 1 0.0410771 0.978495 0.684261 0 -1 0
23 2 0.0933556 0.992874 0.660739 0 -1 0
184 1 0.744814 0.000661996 0.667472 0 0 0
185 2 0.760104 0.99094 0.670168 0 -1 0
189 2 0.790096 0.971647 0.666283 0 -1 0
83 1 0.382837 0.00326998 0.00549842 0 0 0
84 1 0.397766 0.0110187 0.0113945 0 0 0
87 2 0.440769 0.991106 0.995895 0 -1 -1
163 1 0.719674 0.00930324 0.982019 0 0 -1
165 1 0.744863 0.00612634 0.999185 0 0 -1
28 1 0.0737287 0.33665 0.967771 0 0 -1
29 1 0.077496 0.341164 0.986527 0 0 -1
35 2 0.148343 0.319092 0.0186552 0 0 0
192 1 0.72825 0.342044 0.995444 0 0 -1
191 1 0.709979 0.342442 1.00032 0 0 -1
194 2 0.755802 0.331093 0.998544 0 0 -1
193 1 0.741174 0.329464 0.987168 0 0 -1
198 2 0.807993 0.328753 0.986663 0 0 -1
195 2 0.771494 0.338483 0.00490323 0 0 0
30 1 0.0822698 0.326257 0.997612 0 0 -1
110 1 0.385179 0.346161 0.0142561 0 0 0
190 1 0.697541 0.335626 0.0130588 0 0 0
59 2 0.0935963 0.667687 0.000678969 0 0 0
58 1 0.084565 0.658952 0.986849 0 0 -1
140 2 0.423518 0.652277 0.00494808 0 0 0
139 1 0.41723 0.66815 0.0118854 0 0 0
141 2 0.438433 0.66266 0.0058637 0 0 0
218 1 0.721265 0.65544 0.996537 0 0 -1
222 2 0.776782 0.659953 0.99047 0 0 -1
223 2 0.791889 0.668233 0.981778 0 0 -1
224 2 0.804064 0.655014 0.983059 0 0 -1
225 2 0.804245 0.648522 0.00143586 0 0 0
55 1 0.0626844 0.669784 0.0310551 0 0 0
60 2 0.112026 0.669659 0.00731675 0 0 0
62 2 0.140981 0.669666 0.997717 0 0 -1
2 1 0.0736174 1.00115 0.990103 0 -1 -1
1 1 0.0655348 0.983276 0.99129 0 -1 -1
8 2 0.134118 0.976199 0.0122357 0 -1 0
9 2 0.147505 0.973536 0.999643 0 -1 -1
82 1 0.378583 0.992202 0.991234 0 -1 -1
85 1 0.416317 0.0145542 0.00738832 0 0 0
89 2 0.470374 -6.27965e-05 0.00739264 0 0 0
164 1 0.728982 0.997359 0.99301 0 -1 -1
166 1 0.757595 0.00795411 0.0130806 0 0 0
ITEM: TIMESTEP
3000
ITEM: NUMBER OF ATOMS
243
ITEM: BOX BOUNDS pp pp pp
0.0000000000000000e+00 1.8000000000000000e+02
0.0000000000000000e+00 1.8000000000000000e+02
0.0000000000000000e+00 1.8000000000000000e+02
ITEM: ATOMS id type xs ys zs ix iy iz
3 1 0.0770174 0.999355 0.00908398 0 -1 0
83 1 0.397921 0.00562104 -0.000439156 0 0 0
84 1 0.417048 0.00569092 0.00209294 0 0 0
85 1 0.436057 0.00736299 0.00694954 0 0 0
168 2 0.775429 0.00393594 0.013529 0 0 0
167 2 0.762521 0.0140446 0.00357597 0 0 0
166 1 0.765232 0.996639 0.995766 0 -1 -1
169 2 0.787699 0.0173964 0.00691239 0 0 0
31 1 0.0875092 0.336287 0.00712552 0 0 0
34 2 0.129539 0.328426 0.0260092 0 0 0
36 2 0.14341 0.339258 0.995455 0 0 -1
35 2 0.129927 0.329239 0.00632236 0 0 0
109 1 0.378836 0.347567 0.00444613 0 0 0
112 1 0.424734 0.339797 0.00536092 0 0 0
115 2 0.440884 0.329287 0.0329757 0 0 0
114 2 0.435796 0.315152 0.0220383 0 0 0
117 2 0.472228 0.327936 0.0272412 0 0 0
196 2 0.764393 0.325617 0.021016 0 0 0
197 2 0.780837 0.329631 0.0119689 0 0 0
32 2 0.0969016 0.343784 0.0223024 0 0 0
33 2 0.11408 0.339476 0.0270166 0 0 0
111 1 0.406926 0.332813 0.00838553 0 0 0
110 1 0.388472 0.333869 0.0132229 0 0 0
116 2 0.456141 0.318879 0.0303048 0 0 0
190 1 0.705825 0.327002 0.005607 0 0 0
191 1 0.716615 0.318206 0.0174936 0 0 0
195 2 0.760884 0.336146 0.0064243 0 0 0
57 1 0.0777744 0.647173 0.00994383 0 0 0
61 2 0.1343 0.671714 0.00197692 0 0 0
63 2 0.152687 0.668459 0.989631 0 0 -1
136 1 0.398603 0.663479 0.0155371 0 0 0
138 1 0.411367 0.641134 0.995524 0 0 -1
140 2 0.41795 0.654242 0.0155836 0 0 0
141 2 0.435396 0.659984 0.0128642 0 0 0
217 1 0.724918 0.65567 0.00855668 0 0 0
220 1 0.751381 0.668088 0.000608185 0 0 0
225 2 0.801811 0.649094 0.987402 0 0 -1
56 1 0.0661033 0.660655 0.0188701 0 0 0
55 1 0.0537456 0.658353 0.0331256 0 0 0
59 2 0.10268 0.670363 0.000762692 0 0 0
60 2 0.11742 0.66719 0.0106926 0 0 0
139 1 0.40888 0.637919 0.0141915 0 0 0
7 2 0.121714 0.969286 0.0191763 0 -1 0
4 1 0.0841579 0.982477 0.0145909 0 -1 0
6 2 0.111243 0.984594 0.0191585 0 -1 0
5 2 0.0957716 0.980552 0.0287548 0 -1 0
8 2 0.138002 0.961209 0.018122 0 -1 0
89 2 0.457922 0.998089 0.989538 0 -1 -1
90 2 0.467705 0.982569 0.995768 0 -1 -1
170 2 0.80072 0.0155967 0.0213541 0 0 0
171 2 0.805719 0.99909 0.0262511 0 -1 0
10 1 0.0472733 0.0316859 0.30293 0 0 0
11 1 0.0632106 0.0221974 0.305413 0 0 0
12 1 0.0754857 0.012173 0.314343 0 0 0
13 1 0.0767028 0.0150276 0.331653 0 0 0
14 2 0.0846326 0.997947 0.325712 0 -1 0
93 1 0.419783 0.00540313 0.323865 0 0 0
94 1 0.433938 0.993206 0.32505 0 -1 0
97 2 0.451072 0.997759 0.322524 0 -1 0
179 2 0.807809 0.0097348 0.318788 0 0 0
180 2 0.803089 0.0172876 0.334958 0 0 0
37 1 0.0735902 0.334098 0.351497 0 0 0
39 1 0.0696621 0.329172 0.339826 0 0 0
42 2 0.123228 0.32601 0.335146 0 0 0
44 2 0.140069 0.347465 0.33252 0 0 0
45 2 0.147576 0.331239 0.3249 0 0 0
120 1 0.418136 0.320278 0.319258 0 0 0
119 1 0.404767 0.31118 0.310575 0 0 0
118 1 0.398848 0.319222 0.326473 0 0 0
121 1 0.406702 0.333002 0.326549 0 0 0
122 2 0.414143 0.323644 0.341165 0 0 0
126 2 0.475177 0.324619 0.344524 0 0 0
204 2 0.767111 0.314276 0.328027 0 0 0
202 1 0.758202 0.343096 0.343795 0 0 0
205 2 0.782641 0.320773 0.318178 0 0 0
145 1 0.410393 0.686245 0.320571 0 0 0
146 1 0.399658 0.681742 0.335431 0 0 0
72 2 0.0867616 0.699169 0.324472 0 0 0
71 2 0.0785661 0.682728 0.317436 0 0 0
15 2 0.103131 0.000883953 0.327936 0 0 0
92 1 0.405064 0.993705 0.319044 0 -1 0
95 2 0.440449 0.00585523 0.311468 0 0 0
96 2 0.448308 0.0169043 0.323946 0 0 0
98 2 0.461187 0.981899 0.318574 0 -1 0
99 2 0.467865 0.996393 0.330887 0 -1 0
172 1 0.757789 0.989216 0.337009 0 -1 0
175 1 0.759223 0.98986 0.337491 0 -1 0
176 2 0.769057 0.00686438 0.340923 0 0 0
38 1 0.057378 0.341791 0.347871 0 0 0
40 1 0.087595 0.327608 0.334077 0 0 0
124 2 0.45164 0.322613 0.337035 0 0 0
125 2 0.467763 0.329641 0.328953 0 0 0
123 2 0.433535 0.324264 0.340492 0 0 0
203 2 0.756182 0.329999 0.330421 0 0 0
206 2 0.798833 0.328542 0.325393 0 0 0
207 2 0.811288 0.320546 0.336621 0 0 0
41 2 0.10556 0.327427 0.330284 0 0 0
43 2 0.12714 0.342259 0.344617 0 0 0
201 1 0.755338 0.339202 0.325328 0 0 0
200 1 0.743151 0.348874 0.33637 0 0 0
199 1 0.724346 0.345964 0.339088 0 0 0
64 1 0.0621866 0.665554 0.343922 0 0 0
66 1 0.0706733 0.676039 0.346052 0 0 0
150 2 0.453452 0.655557 0.338052 0 0 0
151 2 0.466569 0.649514 0.325464 0 0 0
153 2 0.471246 0.654868 0.356186 0 0 0
226 1 0.702087 0.622837 0.331943 0 0 0
228 1 0.723086 0.632795 0.355377 0 0 0
227 1 0.717255 0.632267 0.337969 0 0 0
230 2 0.753003 0.628117 0.343237 0 0 0
229 1 0.739736 0.640806 0.347813 0 0 0
231 2 0.769511 0.631447 0.334368 0 0 0
232 2 0.780204 0.642408 0.323859 0 0 0
233 2 0.793411 0.650549 0.333708 0 0 0
234 2 0.809531 0.653348 0.325296 0 0 0
65 1 0.0777423 0.664609 0.333279 0 0 0
68 2 0.0683884 0.690724 0.342624 0 0 0
70 2 0.0948683 0.678258 0.325569 0 0 0
67 1 0.0829741 0.689337 0.353404 0 0 0
69 2 0.0870305 0.690665 0.337562 0 0 0
147 1 0.414553 0.673467 0.345002 0 0 0
148 1 0.42292 0.665741 0.330942 0 0 0
149 2 0.434123 0.654268 0.340024 0 0 0
152 2 0.47185 0.661383 0.338527 0 0 0
17 2 0.131174 0.983789 0.333802 0 -1 0
16 2 0.114461 0.986064 0.326352 0 -1 0
18 2 0.115408 0.976187 0.3403 0 -1 0
91 1 0.411112 0.976353 0.315815 0 -1 0
173 1 0.751318 0.976533 0.350594 0 -1 0
174 1 0.745465 0.994226 0.349401 0 -1 0
177 2 0.784208 0.0027419 0.331374 0 0 0
178 2 0.802402 0.00590018 0.336553 0 0 0
26 2 0.109442 0.0181173 0.655345 0 0 0
182 1 0.719358 0.00288749 0.660348 0 0 0
184 1 0.751354 0.00179412 0.673547 0 0 0
51 2 0.124617 0.342707 0.673972 0 0 0
53 2 0.129509 0.33908 0.683833 0 0 0
214 2 0.797643 0.334088 0.679775 0 0 0
215 2 0.794928 0.34286 0.663444 0 0 0
50 2 0.109232 0.350338 0.681697 0 0 0
134 2 0.453947 0.327442 0.675535 0 0 0
135 2 0.45589 0.342474 0.664253 0 0 0
210 1 0.746922 0.347069 0.675739 0 0 0
209 1 0.729087 0.341123 0.678055 0 0 0
216 2 0.812909 0.342731 0.656108 0 0 0
75 1 0.0814089 0.656595 0.680963 0 0 0
156 1 0.406658 0.642545 0.670536 0 0 0
155 1 0.396149 0.629283 0.662655 0 0 0
158 2 0.424771 0.653309 0.670692 0 0 0
159 2 0.441047 0.652984 0.660915 0 0 0
239 2 0.765364 0.650859 0.687957 0 0 0
157 1 0.407393 0.661015 0.670334 0 0 0
162 2 0.455722 0.667702 0.649565 0 0 0
22 1 0.0796587 0.978967 0.659878 0 -1 0
24 2 0.105898 0.00620702 0.657114 0 0 0
23 2 0.0908881 0.993973 0.659244 0 -1 0
25 2 0.0992145 0.0178143 0.67142 0 0 0
27 2 0.118143 0.00826213 0.641522 0 0 0
183 1 0.737205 0.995057 0.661178 0 -1 0
187 2 0.778903 0.982686 0.670829 0 -1 0
189 2 0.764269 0.984527 0.657462 0 -1 0
100 1 0.408231 0.01569 0.681039 0 0 0
102 1 0.419849 0.997802 0.67296 0 -1 0
104 2 0.445589 0.0104952 0.693423 0 0 0
105 2 0.460875 0.0182335 0.684815 0 0 0
106 2 0.474867 0.0154722 0.698203 0 0 0
107 2 0.488767 0.013757 0.6853 0 0 0
108 2 0.500587 0.0116076 0.701686 0 0 0
46 1 0.0589125 0.333992 0.700664 0 0 0
52 2 0.116463 0.326814 0.679585 0 0 0
54 2 0.147269 0.345933 0.680902 0 0 0
132 2 0.419835 0.330112 0.66965 0 0 0
133 2 0.437749 0.327467 0.666449 0 0 0
208 1 0.714337 0.335648 0.667325 0 0 0
212 2 0.7751 0.324198 0.672912 0 0 0
213 2 0.779499 0.340351 0.680395 0 0 0
47 1 0.0667186 0.34573 0.687423 0 0 0
48 1 0.0791797 0.331639 0.68437 0 0 0
49 1 0.0963656 0.336205 0.685745 0 0 0
127 1 0.400611 0.345983 0.665752 0 0 0
129 1 0.415908 0.350151 0.692728 0 0 0
128 1 0.402697 0.340415 0.684141 0 0 0
130 1 0.402634 0.33705 0.688365 0 0 0
131 2 0.413932 0.322746 0.686684 0 0 0
211 1 0.758652 0.333404 0.674462 0 0 0
73 1 0.0722733 0.675019 0.687818 0 0 0
74 1 0.0696212 0.657588 0.69605 0 0 0
76 1 0.0988824 0.663326 0.676682 0 0 0
81 2 0.162484 0.677816 0.674252 0 0 0
154 1 0.382082 0.631661 0.674147 0 0 0
160 2 0.458055 0.660379 0.665407 0 0 0
235 1 0.723096 0.643424 0.699455 0 0 0
237 1 0.73486 0.647502 0.701613 0 0 0
236 1 0.723947 0.661758 0.69749 0 0 0
238 1 0.746626 0.646521 0.686251 0 0 0
240 2 0.781782 0.653342 0.68065 0 0 0
77 2 0.108019 0.680543 0.674707 0 0 0
78 2 0.119458 0.670627 0.663025 0 0 0
79 2 0.135496 0.675736 0.668588 0 0 0
80 2 0.147082 0.667247 0.680096 0 0 0
161 2 0.458511 0.678891 0.664383 0 0 0
243 2 0.808719 0.694489 0.675109 0 0 0
242 2 0.798892 0.684747 0.688308 0 0 0
241 2 0.786021 0.670952 0.687087 0 0 0
21 1 0.0658668 0.98485 0.673222 0 -1 0
20 1 0.0486028 0.992032 0.669856 0 -1 0
19 1 0.0355472 0.984482 0.681183 0 -1 0
101 1 0.401352 1.00033 0.674439 0 -1 0
103 1 0.432376 0.00813286 0.681901 0 0 0
181 1 0.701767 0.00841813 0.663694 0 0 0
186 2 0.765582 0.993875 0.679375 0 -1 0
185 2 0.753096 0.999413 0.693065 0 -1 0
188 2 0.776467 0.998695 0.662335 0 -1 0
2 1 0.0638824 0.0012597 0.995731 0 0 -1
86 2 0.449247 0.0193531 0.000511059 0 0 0
163 1 0.749795 0.00180225 0.974659 0 0 -1
165 1 0.75235 -0.000386405 0.9827 0 0 -1
30 1 0.0730136 0.344023 0.997693 0 0 -1
113 2 0.432772 0.333106 0.0206351 0 0 0
193 1 0.732459 0.323632 0.999765 0 0 -1
194 2 0.751057 0.320401 0.00417523 0 0 0
198 2 0.786436 0.339858 0.99751 0 0 -1
28 1 0.0608316 0.337154 0.96669 0 0 -1
29 1 0.0764528 0.340703 0.979477 0 0 -1
192 1 0.716727 0.332864 0.00434005 0 0 0
58 1 0.0940194 0.653765 0.000879851 0 0 0
137 1 0.397445 0.649088 0.00344961 0 0 0
219 1 0.733892 0.674703 0.997793 0 0 -1
218 1 0.721462 0.66319 0.991835 0 0 -1
221 2 0.76152 0.669311 0.98512 0 0 -1
222 2 0.774133 0.663217 0.972218 0 0 -1
224 2 0.791043 0.645579 0.973242 0 0 -1
62 2 0.153081 0.670259 0.00842478 0 0 0
142 2 0.440422 0.672965 0.000711063 0 0 0
143 2 0.453101 0.688307 0.998048 0 0 -1
144 2 0.467457 0.700169 0.995368 0 0 -1
223 2 0.784964 0.655642 0.957807 0 0 -1
1 1 0.073206 0.985272 0.995462 0 -1 -1
9 2 0.121409 0.964492 0.0109091 0 -1 0
82 1 0.400472 0.987643 0.994715 0 -1 -1
87 2 0.437748 0.00450918 0.000136904 0 0 0
88 2 0.439059 0.991774 0.98609 0 -1 -1
164 1 0.745056 0.983083 0.976259 0 -1 -1
ITEM: TIMESTEP
4000
ITEM: NUMBER OF ATOMS
243
ITEM: BOX BOUNDS pp pp pp
0.0000000000000000e+00 1.8000000000000000e+02
0.0000000000000000e+00 1.8000000000000000e+02
0.0000000000000000e+00 1.8000000000000000e+02
ITEM: ATOMS id type xs ys zs ix iy iz
84 1 0.412327 0.00566621 0.99185 0 0 -1
85 1 0.423648 0.991045 0.995464 0 -1 -1
86 2 0.440174 0.00118246 0.993208 0 0 -1
168 2 0.760387 0.00261647 -6.27513e-05 0 0 0
167 2 0.744538 0.993049 0.005851 0 -1 0
169 2 0.778198 0.00947266 0.00318946 0 0 0
170 2 0.794356 0.0136272 0.0132015 0 0 0
34 2 0.124996 0.334969 0.0136232 0 0 0