LAMMPS data file via write_data, version 29 Oct 2020, timestep = 100000

378 atoms
2 atom types
351 bonds
3 bond types

0.0 180.0 xlo xhi
0.0 180.0 ylo yhi
0.0 180.0 zlo zhi

Masses

1 50
2 50

Pair Coeffs # lj/cut

1 2.5 3.6
2 0.1 3.6

Bond Coeffs # harmonic

1 30 3.7
2 30 3.7
3 30 3.7

Atoms # full

308 22 2 0.0 125.14370301575941 86.85787856415989 179.20212330735157 0 0 -1
305 22 1 0.0 127.37957201607465 87.48313921941423 1.7896953418539763 0 0 0
295 22 2 0.0 136.15504579311568 87.15356526665903 178.97713012494629 0 0 -1
307 22 2 0.0 127.50368421178622 86.85347907989181 1.9145457557885355 0 0 0
298 22 1 0.0 128.11559009698163 90.6945477707992 179.20916641310288 0 0 -1
299 22 1 0.0 130.64542643960633 89.9433105780706 1.6763196800039166 0 0 0
297 22 1 0.0 130.84533910351863 90.04225108410833 1.5191057090577815 0 0 0
296 22 2 0.0 133.341957437715 87.29051420227323 1.033585138347354 0 0 0
96 7 1 0.0 16.914646036796306 105.08174879728963 8.301274759128837 0 0 0
95 7 1 0.0 20.186225987065345 103.65342035150994 7.583521568867921 0 0 0
97 7 2 0.0 19.796350569612635 103.13921109216777 6.719899883053184 0 0 0
134 10 2 0.0 64.36785777872798 145.1059041223944 3.9962454198986634 0 -1 0
1 1 2 0.0 52.92783679147149 153.96854706999224 1.9916074383037106 0 -1 0
5 1 1 0.0 58.2723752954759 150.37408969981843 5.305116483805711 0 -1 0
3 1 1 0.0 58.39148161041076 150.35375155899754 5.0991629450112335 0 -1 0
2 1 2 0.0 55.63208149191422 151.8348652366229 2.964276443325273 0 -1 0
10 1 1 0.0 60.776250279137024 150.55477856031558 2.0369554971163923 0 -1 0
11 1 1 0.0 61.1034387434064 147.74703357073906 4.122388517822625 0 -1 0
12 1 1 0.0 64.58173147668727 149.19373017369463 3.9708309565937134 0 -1 0
9 1 2 0.0 63.01410075543294 153.37973918423484 1.7875343368364003 0 -1 0
13 1 2 0.0 66.86093836536625 147.98962081804174 6.9917596945573015 0 -1 0
347 25 1 0.0 133.7182975581457 147.31476760152952 0.7813878310027401 0 0 0
345 25 2 0.0 134.03632617687109 146.34768301693563 0.6653948345674302 0 0 0
344 25 2 0.0 130.5929418064388 147.62180673253906 1.189331869317352 0 0 0
341 25 1 0.0 131.23752057328701 150.39129628534192 0.19259824458030236 0 0 0
343 25 2 0.0 131.01126741760888 151.2654048948986 0.6981590550752664 0 0 0
348 25 1 0.0 137.18703726937665 148.12179022423783 1.4034995852211958 0 0 0
346 25 1 0.0 137.12208684442462 148.5593628778408 0.727255554931235 0 0 0
349 25 2 0.0 135.20406606622151 148.66849352030133 178.28273254569825 0 0 -1
337 25 2 0.0 138.136863014664 152.63221025824458 6.490810732785895 0 0 0
350 25 2 0.0 132.4291077850105 146.9857002199809 176.50445554564536 0 0 -1
8 1 2 0.0 66.26130824613855 153.31367457740717 3.7396944617333427 0 -1 0
340 25 1 0.0 134.73881942144635 151.59163101104122 0.37049505983684206 0 0 0
342 25 1 0.0 134.47496706310125 151.17708111292646 1.9200864756645502 0 0 0
253 19 2 0.0 166.97039872065153 178.22212179926575 177.10530535243765 0 -1 -1
182 13 2 0.0 112.00057348317037 90.95863316892299 12.847833571697729 0 0 0
87 7 1 0.0 17.01211563794331 101.36646933752611 9.955256259546347 0 0 0
89 7 1 0.0 17.073137926652898 101.38646309202979 9.684153022123917 0 0 0
94 7 1 0.0 20.807650162432598 100.70298882128652 9.469352673458367 0 0 0
93 7 2 0.0 22.31993567274504 98.03125324369431 11.433534959654096 0 0 0
88 7 1 0.0 19.323161136738072 103.84504035048829 11.32992847859223 0 0 0
90 7 1 0.0 19.121582114316166 104.00197752959188 11.417731749218895 0 0 0
85 7 2 0.0 16.80170710319924 106.9393350241352 12.311126837788569 0 0 0
86 7 2 0.0 14.837698472105455 103.89898543231288 11.577802972278082 0 0 0
91 7 2 0.0 20.57060416320379 100.89238784170296 12.596896213843488 0 0 0
98 7 2 0.0 21.85585093218816 105.42923976773837 8.768863439305447 0 0 0
133 10 2 0.0 62.15391835481809 145.1984751402317 6.762056623589294 0 -1 0
135 10 2 0.0 62.65429453835511 145.01224234772724 7.179101789208219 0 -1 0
14 1 2 0.0 66.20461396639989 147.10621770700462 10.544976628119132 0 -1 0
127 10 2 0.0 57.29051579163758 153.85056986144028 12.495922397495674 0 -1 0
129 10 1 0.0 59.52847850120542 150.55865576690817 9.047419950206132 0 -1 0
131 10 1 0.0 59.74856678742505 150.39241094563153 8.97545619860035 0 -1 0
132 10 1 0.0 59.28321392723322 147.03331797010605 7.390557203870788 0 -1 0
130 10 1 0.0 59.13669989814983 147.1479846548264 7.7617526856884105 0 -1 0
137 10 1 0.0 61.558709088046484 147.66620398524412 10.901722196667539 0 -1 0
138 10 1 0.0 63.02380249171479 148.5890562396523 7.64908804454978 0 -1 0
136 10 1 0.0 62.93760390671465 148.65216402837112 7.651573982464573 0 -1 0
6 1 1 0.0 61.667579751429415 151.89044654763882 5.858961158217251 0 -1 0
4 1 1 0.0 61.62909096492386 151.76027705523822 5.626496028948547 0 -1 0
7 1 2 0.0 65.06398494842814 152.35098982153926 7.166283014344687 0 -1 0
139 10 2 0.0 64.74918829760392 150.3918158825967 10.258120277433752 0 -1 0
339 25 1 0.0 134.95361174752347 150.26572547966583 3.7829694858428584 0 0 0
128 10 2 0.0 57.75461919607289 153.82384677861202 8.789289046485926 0 -1 0
338 25 2 0.0 138.5626855399699 150.9757006625328 3.4116215623685675 0 0 0
169 13 2 0.0 107.78592137939347 87.36717594031778 11.67317894907411 0 0 0
170 13 2 0.0 106.75285182487445 89.46437432484139 14.527855883080969 0 0 0
173 13 1 0.0 108.32148558841085 91.04616077055219 17.865163644713167 0 0 0
180 13 1 0.0 111.72900130271552 93.49304421019343 17.407242019536394 0 0 0
178 13 1 0.0 111.9161062760326 93.20432765547012 18.30437314400108 0 0 0
172 13 1 0.0 108.27689787610991 93.31368748803331 14.972486845327643 0 0 0
171 13 1 0.0 108.49751274375636 90.74919658757733 17.38233979059862 0 0 0
181 13 2 0.0 114.50263296238819 92.61587898987493 15.015797531561057 0 0 0
223 16 2 0.0 67.60986918414096 98.4583589822995 21.507061636286764 0 0 0
179 13 1 0.0 108.6588183589334 95.39857737839202 18.439678261404758 0 0 0
92 7 2 0.0 19.45311730165983 97.6556098189678 13.629699079508603 0 0 0
140 10 2 0.0 63.916184373532744 148.0485584120762 12.982402293410823 0 -1 0
217 16 2 0.0 61.493584415151794 90.68305949401676 26.477040133669814 0 0 0
177 13 2 0.0 115.34140728202799 91.84198674977704 18.133348990717412 0 0 0
175 13 2 0.0 114.40955541486814 87.32802036708358 17.269572376793768 0 0 0
174 13 1 0.0 111.57152140331414 89.65593324187194 16.465852931529053 0 0 0
176 13 2 0.0 117.62506844309816 88.98649774689389 17.885707796932273 0 0 0
213 16 1 0.0 64.56227614470981 93.09496796343284 26.023701872755264 0 0 0
215 16 1 0.0 64.31279457225524 93.53319923149378 25.702901264395006 0 0 0
222 16 1 0.0 65.6908323323613 95.32850809644572 22.040235530913225 0 0 0
221 16 1 0.0 67.88687468020805 93.13964412914589 24.12351438426477 0 0 0
224 16 2 0.0 67.4631448534977 98.44029955863228 17.93393819741975 0 0 0
214 16 1 0.0 65.11178879774981 90.71051771247417 23.364418008735704 0 0 0
216 16 1 0.0 64.10549240162793 90.53979648092277 23.61739217900953 0 0 0
212 16 2 0.0 63.63299357446819 94.2445051445296 29.38049957464045 0 0 0
211 16 2 0.0 60.30043788564371 95.63562546949757 28.960783314815096 0 0 0
218 16 2 0.0 63.71718559104322 90.45175239470336 29.460549697400214 0 0 0
219 16 2 0.0 65.75182251906408 88.00412096729266 27.844733008064484 0 0 0
220 16 1 0.0 67.57761526467787 91.15445641786862 27.22228938949737 0 0 0
99 8 2 0.0 11.585525878315424 139.81762690970507 46.23577575635833 0 0 0
106 8 2 0.0 16.576144060841713 141.64111996378548 39.88182471170915 0 0 0
101 8 1 0.0 15.060625611633666 138.12331656387394 45.42238715106055 0 0 0
103 8 1 0.0 15.080313682735639 137.96602124463615 45.181514986319456 0 0 0
108 8 1 0.0 18.96252519133898 137.06714742345116 44.88922904167753 0 0 0
110 8 1 0.0 18.996351999562233 137.53536124272048 44.60741268335896 0 0 0
105 8 2 0.0 14.747935100047563 138.94112896625808 41.83010389566636 0 0 0
104 8 1 0.0 17.122735272857174 140.86710277366456 44.020180103578944 0 0 0
107 8 2 0.0 17.33514685771082 139.14301439530533 42.35031146452702 0 0 0
359 26 2 0.0 135.6712387342031 160.2458428370095 46.80107502464649 0 0 0
357 26 2 0.0 132.234493785528 161.11133014558385 44.78423067796235 0 0 0
352 26 2 0.0 132.14306853509612 167.07064808389168 43.826990696906336 0 0 0
351 26 2 0.0 135.82051236231104 166.39487444250733 42.90915946698593 0 0 0
58 5 2 0.0 45.7444692275794 91.15399844162587 52.61438596018419 0 0 0
59 5 1 0.0 44.16881166865512 94.59211453187528 51.50476933526548 0 0 0
68 5 1 0.0 43.82824112574353 98.60388619984819 50.89100669457132 0 0 0
69 5 2 0.0 46.90791528486561 100.33333727819266 52.01625983867212 0 0 0
57 5 2 0.0 42.29062853431711 90.77919110378764 53.56910388513785 0 0 0
67 5 1 0.0 42.07663905598179 97.25751312235582 53.985043454355406 0 0 0
60 5 1 0.0 46.51849314982738 96.69628886650162 53.03755558581481 0 0 0
62 5 1 0.0 46.216896300093964 96.5705149601264 53.27805856408106 0 0 0
70 5 2 0.0 50.572498413591646 100.75736743186958 51.70802289054185 0 0 0
100 8 2 0.0 14.853093098665928 141.642255091076 46.6610707087069 0 0 0
102 8 1 0.0 16.349785389341843 135.34936557089415 47.66353398802676 0 0 0
112 8 2 0.0 15.372811742949175 139.76774252991547 50.13183277719179 0 0 0
109 8 1 0.0 18.282861633904044 138.90659738389573 47.911105025040314 0 0 0
111 8 2 0.0 18.076844619847247 138.65507202264257 48.01560807000335 0 0 0
358 26 2 0.0 133.99316360943348 157.89398099180255 44.57161467589743 0 0 0
354 26 1 0.0 132.08658142919262 162.04625136397752 48.05006822042086 0 0 0
356 26 1 0.0 132.42458995001883 162.21826207822508 48.37354864182859 0 0 0
355 26 1 0.0 131.55008054838024 165.66702031227786 47.29786498804447 0 0 0
353 26 1 0.0 131.77806989632245 165.56919114844445 47.117551211300295 0 0 0
360 26 1 0.0 135.0856939835602 164.06645528999718 46.17476497622006 0 0 0
361 26 1 0.0 134.88822199202343 165.7782030489854 49.487649136867105 0 0 0
364 26 2 0.0 137.4659194939447 165.9056277451722 52.23662926505912 0 0 0
362 26 1 0.0 131.65455158265968 164.77163558942274 51.06614951255567 0 0 0
363 26 2 0.0 135.0684006322821 165.06034589497298 49.652479746413356 0 0 0
309 23 2 0.0 6.122471996175615 72.66827816157351 55.679861077055364 1 0 0
80 6 1 0.0 0.9949822407483662 79.04310469490395 58.84264137366042 0 0 0
78 6 2 0.0 3.0903885183888424 79.66523404826613 55.987592295637086 0 0 0
79 6 2 0.0 179.37552224282103 80.47182011540205 55.78619444647405 -1 0 0
310 23 2 0.0 3.3703335621123043 74.29428229539664 57.725876362323184 1 0 0
77 6 2 0.0 3.859443311194722 82.53679205060598 58.138237295229096 0 0 0
66 5 1 0.0 43.89206912241966 94.45914394340187 55.64673128180046 0 0 0
61 5 1 0.0 45.15489614790065 98.39518979282136 56.11082051249444 0 0 0
63 5 2 0.0 45.88639996931842 95.92487638371954 56.89901819117982 0 0 0
65 5 2 0.0 41.92457773363999 96.03587961741333 58.34764277087068 0 0 0
64 5 2 0.0 42.97361154225571 96.58387950402022 54.768948496714096 0 0 0
279 20 2 0.0 95.04998985724275 26.79383230981842 64.04336555729091 0 0 0
277 20 1 0.0 89.54037251762594 27.830043397769185 67.34823759892174 0 0 0
274 20 2 0.0 93.44273171996733 34.986350831052455 63.24640409119861 0 0 0
276 20 1 0.0 89.32439783750945 31.335942291522745 68.30499438553409 0 0 0
272 20 1 0.0 92.45281223618714 30.467460995254804 65.75409234706895 0 0 0
270 20 1 0.0 92.59921239939352 29.763813253664058 65.67767804282593 0 0 0
273 20 2 0.0 95.45527542797201 31.872765341066707 63.80716638062659 0 0 0
280 20 2 0.0 93.4169522185066 26.259579357308624 60.818569991756924 0 0 0
275 20 2 0.0 91.06851759984858 33.440584189957505 65.62959174098395 0 0 0
74 6 1 0.0 5.658968922032061 79.26825277660178 59.62486536992645 0 0 0
313 23 1 0.0 3.3003899411033624 76.21532806683821 60.810715215364986 1 0 0
311 23 1 0.0 3.4050421177790127 76.41345012286793 60.81101763248275 1 0 0
82 6 1 0.0 2.5620005781824435 77.26431190432626 64.7456691446248 0 0 0
73 6 1 0.0 3.31570091686801 80.33977554495063 62.379233509544626 0 0 0
81 6 1 0.0 179.8589397311011 77.91773114288915 62.12989552292765 -1 0 0
318 23 1 0.0 6.328681312656513 77.30216957139346 63.14294679677732 1 0 0
320 23 1 0.0 6.414878786156697 78.20359335863381 63.53699852679195 1 0 0
75 6 1 0.0 3.0961513657930166 80.36635159312259 62.002353453087494 0 0 0
315 23 2 0.0 10.227107814732047 74.31171676828605 60.14835662362477 1 0 0
321 23 2 0.0 7.533317765359852 74.66992157306463 63.013849436764026 1 0 0
312 23 1 0.0 6.717863542800938 75.58422692085082 59.252281218163816 1 0 0
314 23 1 0.0 6.70166979165993 75.3960770315933 59.54873916921659 1 0 0
322 23 2 0.0 9.888983374644306 76.23508189956587 65.47633270744048 1 0 0
76 6 1 0.0 5.487100221529089 79.32348868624038 59.40054083869208 0 0 0
71 6 2 0.0 0.9358398252970054 83.07967263011109 65.08337571918172 0 0 0
72 6 2 0.0 3.909096649650046 80.95663429141564 66.11545451024952 0 0 0
319 23 1 0.0 9.101012085097137 78.2648934899377 61.02702762505215 1 0 0
317 23 2 0.0 7.825694236569626 80.59535461849623 62.96937169409074 1 0 0
316 23 2 0.0 9.364817972834857 78.0961168812247 60.83368350447733 1 0 0
237 17 2 0.0 55.07218781053253 179.64557531770936 69.7111839249898 0 0 0
238 17 2 0.0 52.84077123969559 1.632524019837454 71.70742799560449 0 1 0
278 20 1 0.0 92.48077382366316 25.983079469681606 66.71320911296134 0 0 0
267 20 2 0.0 98.5629703146712 29.10203207904912 72.82568272464817 0 0 0
269 20 1 0.0 92.80768251293581 29.257028282624596 69.28722149717424 0 0 0
271 20 1 0.0 93.10246044796665 30.606996761815903 69.380057310825 0 0 0
268 20 2 0.0 96.5481913861604 29.544883117697825 69.8648560861822 0 0 0
83 6 2 0.0 5.123619874777137 75.08221067208726 65.99088321916634 0 0 0
84 6 2 0.0 2.1846973454667777 73.55846461422065 67.3688484905008 0 0 0
225 17 2 0.0 52.66128080294594 171.22315927199088 63.291043212178636 0 0 0
228 17 1 0.0 51.91120295064725 172.0946671032771 72.3996790140504 0 0 0
226 17 2 0.0 52.084595184341666 169.04219897743897 66.20897589700799 0 0 0
227 17 1 0.0 51.6916186192881 171.7330880786714 68.80636346081847 0 0 0
235 17 1 0.0 55.92852684683471 173.0084898265956 69.30426381074862 0 0 0
234 17 1 0.0 55.27795350532897 170.2792807658914 71.60493510999599 0 0 0
236 17 1 0.0 54.338566876571626 176.1610125499397 69.88317937517617 0 0 0
229 17 1 0.0 54.89271622268854 174.20722004191632 73.45142161083456 0 0 0
230 17 1 0.0 58.34481193638099 173.2403701685368 72.58233244233607 0 0 0
231 17 2 0.0 58.55176097954948 176.5122365669514 70.88470198185415 0 0 0
232 17 2 0.0 57.920262956359636 172.78773830906783 72.06255043165463 0 0 0
233 17 2 0.0 58.91680370015339 169.3642437604126 71.80291878507647 0 0 0
190 14 2 0.0 71.28655601220916 82.59132449166039 82.04328310655801 0 0 0
21 2 2 0.0 18.863896882212703 175.36387594033187 77.5324831096577 0 -1 0
20 2 1 0.0 16.324277404077694 176.00505944665153 79.96449382518627 0 -1 0
22 2 2 0.0 21.057153566486154 172.35901801193452 77.25209289894309 0 -1 0
23 2 2 0.0 20.762067555528457 172.45852107890147 80.86192107083511 0 -1 0
191 14 2 0.0 73.6337486787421 80.20163068745673 83.59082571054404 0 0 0
194 14 1 0.0 72.30294526631373 81.7762112175878 86.93303976813728 0 0 0
192 14 1 0.0 72.41417572464546 81.61342196790301 86.68279383138822 0 0 0
189 14 2 0.0 73.91997247861066 80.6887984072189 83.7730828006029 0 0 0
185 14 1 0.0 69.71674572671552 84.39480963360438 85.52809172461792 0 0 0
188 14 1 0.0 71.4142416500361 83.1520819670754 82.58107838175285 0 0 0
193 14 1 0.0 68.9036875454398 80.52416784596508 85.79429948949107 0 0 0
187 14 1 0.0 69.72679313266394 84.66382511301991 85.53698671311447 0 0 0
19 2 1 0.0 16.43369015741633 172.3364577899902 79.2879784516522 0 -1 0
18 2 1 0.0 17.102003106353802 169.47296124760138 81.30954535219941 0 -1 0
16 2 2 0.0 15.216709138922242 171.45119895750582 80.43826373909587 0 -1 0
17 2 1 0.0 14.509618595528902 170.5166950009197 83.84173906649696 0 -1 0
26 2 1 0.0 18.052732351620065 172.91047444395667 82.99772758236693 0 -1 0
24 2 1 0.0 17.959245762012422 172.85647197576932 83.05785746694609 0 -1 0
15 2 2 0.0 12.870977846280482 174.1800144917946 81.07206764328137 0 -1 0
25 2 1 0.0 20.297790162419506 175.01770908201922 81.19449252124443 0 -1 0
27 2 2 0.0 16.038775243571948 173.79514656423373 85.85696640674092 0 -1 0
195 14 2 0.0 70.72301829430357 78.53488311269147 87.56851009995508 0 0 0
196 14 2 0.0 73.4733392351749 77.4962657115698 89.81939381781089 0 0 0
183 14 2 0.0 65.52452529105153 86.85153971726459 90.6852604671789 0 0 0
186 14 1 0.0 69.5178330930891 83.32200711384965 88.99227633032623 0 0 0
184 14 2 0.0 67.49040198925474 86.35551858424267 87.59111930588003 0 0 0
28 2 2 0.0 17.289397296070174 177.12122734092276 86.7589214979699 0 -1 0
151 11 1 0.0 72.33770657288147 2.755839635099878 99.21367482329413 0 0 0
142 11 2 0.0 75.65687894779931 7.650688058275001 97.68390754548756 0 0 0
143 11 1 0.0 75.05105003061614 6.343419824062663 100.9464678714192 0 0 0
150 11 1 0.0 74.43997446999384 2.6145092092209476 102.3728320465831 0 0 0
141 11 2 0.0 73.9830061455344 5.9338603276563076 94.94885986638135 0 0 0
153 11 2 0.0 72.88382895642232 9.78442749088765 100.1500673728023 0 0 0
154 11 2 0.0 72.12033540114213 6.315114277055776 98.80338701321716 0 0 0
145 11 1 0.0 75.38237104630218 6.2432766598532945 101.47265443765515 0 0 0
245 18 2 0.0 112.16363957063159 137.22571691494463 93.3742726937133 0 0 0
247 18 2 0.0 112.74814991720224 135.6867490754455 97.06029710566916 0 0 0
244 18 1 0.0 114.66801793941464 135.56020172096757 95.78591783755543 0 0 0
246 18 2 0.0 114.64829560716679 138.58891598781162 95.8991870812945 0 0 0
248 18 1 0.0 115.16814126510431 137.40239602710074 99.32837305748824 0 0 0
250 18 1 0.0 115.10254385578376 137.55695590274925 99.52242316223068 0 0 0
249 18 1 0.0 118.34110772535237 136.52162887376332 98.2004686730842 0 0 0
251 18 2 0.0 118.68231852196898 136.41315746628146 99.26317421533705 0 0 0
252 18 2 0.0 117.89463113714629 136.93701393976258 95.57819812148787 0 0 0
148 11 2 0.0 74.59813835752226 1.3841622278870518 101.88062133353273 0 0 0
149 11 2 0.0 76.69489242382596 1.0726703051427293 104.99383060466442 0 0 0
144 11 1 0.0 71.98424751932457 6.371901230492085 102.98446590893577 0 0 0
147 11 2 0.0 72.88635986090853 2.6239234897698687 104.89768544822125 0 0 0
146 11 1 0.0 72.39274334253975 5.708095496456121 103.06127538274501 0 0 0
152 11 1 0.0 71.9296897824247 6.503042720532459 98.5999792745469 0 0 0
330 24 2 0.0 161.6075703123533 59.065751906849265 109.8231583998588 0 0 0
120 9 2 0.0 33.890010575711614 129.39037484606774 104.6897633972852 0 0 0
121 9 2 0.0 36.796840572076604 131.58568643915038 103.87880032094998 0 0 0
122 9 1 0.0 34.494333281894185 133.60451802505654 101.84258216785052 0 0 0
125 9 2 0.0 36.82005162131616 135.62754939509048 100.45857681291513 0 0 0
240 18 2 0.0 117.30358066671957 134.49927203516307 101.69501532992794 0 0 0
117 9 1 0.0 32.61521156211056 132.06499481471405 104.78797891850407 0 0 0
114 9 2 0.0 29.100598266080578 133.2552772799251 101.88457477036411 0 0 0
113 9 2 0.0 29.894671335130585 134.19877070941286 98.41055966247103 0 0 0
116 9 1 0.0 34.401106107342265 135.39271631247362 105.46593612924731 0 0 0
118 9 1 0.0 32.25568273582338 135.7870102369318 104.80410895356161 0 0 0
124 9 1 0.0 33.7613190804284 133.65803335570072 101.05626455390234 0 0 0
115 9 1 0.0 31.231726149754763 135.7418516966371 103.17423669503933 0 0 0
123 9 1 0.0 34.95216415274261 137.22661382802366 101.69684687841522 0 0 0
126 9 2 0.0 40.389137485518035 135.8463421297749 101.80703858800149 0 0 0
239 18 2 0.0 113.98035286344528 134.61930535092196 103.3019596049813 0 0 0
241 18 1 0.0 115.65777162676325 133.36073777384343 98.67576969252947 0 0 0
243 18 1 0.0 115.96857586767383 133.6435007644149 98.66137312122954 0 0 0
242 18 1 0.0 116.51433528413246 134.6427296651355 102.07488305170006 0 0 0
366 27 2 0.0 136.81409740644722 152.99584164063367 102.59265580614417 0 0 0
369 27 1 0.0 136.3855862770965 156.98455529069088 103.80869572652422 0 0 0
368 27 1 0.0 137.45844953374342 153.36338325498528 104.21926621055665 0 0 0
373 27 2 0.0 137.9831833328859 158.8317167474908 107.97178246923318 0 0 0
367 27 1 0.0 137.82107974698926 156.47609998131801 101.99263417587672 0 0 0
365 27 2 0.0 138.2259192113255 150.05114611778365 104.65324383132437 0 0 0
376 27 1 0.0 139.91487235852426 156.56625958156542 105.49850536491958 0 0 0
374 27 1 0.0 140.01330115856774 156.72603779021645 105.69609753577939 0 0 0
371 27 2 0.0 139.04202872878366 159.84190293452872 103.23459608866786 0 0 0
323 24 2 0.0 155.53656481726836 51.26880994853039 110.04177228664851 0 0 0
331 24 2 0.0 158.6854559726818 57.643358372984665 108.05681016111191 0 0 0
334 24 1 0.0 154.4210250960041 56.896404045533316 109.58630585233445 0 0 0
324 24 2 0.0 155.5423917471856 53.71803232750979 107.20251934502122 0 0 0
325 24 1 0.0 155.24916011618188 52.99327302451189 111.001639244766 0 0 0
332 24 1 0.0 155.17141876120576 56.93894002603159 109.50016206712868 0 0 0
326 24 1 0.0 158.4992999806703 54.595520936778314 111.76957440792656 0 0 0
328 24 1 0.0 157.99579747722416 54.83476104204342 111.04929223804137 0 0 0
329 24 2 0.0 158.6308524259075 57.21487977492063 108.40956217785568 0 0 0
327 24 1 0.0 158.25801236343273 58.24417208826047 112.44560496615605 0 0 0
119 9 2 0.0 31.803160337993297 132.344248938617 105.48133790361355 0 0 0
370 27 1 0.0 136.49257627491562 159.94752681772454 106.08110496658945 0 0 0
375 27 1 0.0 137.38897415371773 155.96898732726416 107.81444322134654 0 0 0
378 27 2 0.0 143.14632918483323 158.38081826194855 108.13800102858966 0 0 0
377 27 2 0.0 143.2034996063529 154.9675986527093 106.83167499798388 0 0 0
372 27 2 0.0 136.20068348388028 157.7819334470959 105.08205195418869 0 0 0
335 24 2 0.0 153.65467680146688 59.239146646344246 112.34238175913615 0 0 0
333 24 1 0.0 154.8146909059017 56.27493143169682 113.29194050590596 0 0 0
336 24 2 0.0 153.2436283613381 58.214859441533996 115.94575899085831 0 0 0
168 12 2 0.0 131.70083748609707 28.429667050201438 129.7720855040575 0 0 0
157 12 1 0.0 125.3915113035925 32.608409735238375 132.7742055339513 0 0 0
159 12 1 0.0 125.537167502071 32.76532771921991 132.57389516839206 0 0 0
167 12 2 0.0 130.2603320591681 31.669057698142293 129.25967513020888 0 0 0
158 12 1 0.0 128.04226719408504 30.335669546305535 133.82227028963314 0 0 0
160 12 1 0.0 127.72559697493087 30.88182168817331 134.5518327330507 0 0 0
165 12 1 0.0 128.01047509753494 31.25058650030444 129.93783287088598 0 0 0
164 12 1 0.0 129.84365283989345 33.317741678000026 132.2184152229184 0 0 0
166 12 1 0.0 129.30795033035892 33.82162863708232 132.08875528839764 0 0 0
155 12 2 0.0 123.55812918989359 36.90571397100579 131.18857999318192 0 0 0
163 12 2 0.0 132.02470548885015 35.717523686091425 133.87298021926298 0 0 0
41 3 2 0.0 53.96622848186382 162.1544365696087 132.1835228506796 0 -1 0
38 3 1 0.0 52.46659798314879 165.22356635138362 130.8450443946068 0 -1 0
40 3 1 0.0 53.57585071381682 165.31220815383347 130.4544342110538 0 -1 0
42 3 2 0.0 55.6162486203946 164.10925936477517 129.7913534855201 0 -1 0
33 3 1 0.0 56.808070228614895 168.229711891984 130.41979487890305 0 -1 0
29 3 2 0.0 45.5123953333625 171.64021925932855 124.93895602610117 0 -1 0
31 3 1 0.0 50.423739787081885 167.6262504240266 128.51451823211997 0 -1 0
30 3 2 0.0 47.81578311110509 169.47218055485524 126.67769424917643 0 -1 0
34 3 1 0.0 53.64693974593074 169.358563446804 129.3300722461811 0 -1 0
32 3 1 0.0 53.2813669639695 169.5553138829752 129.8149817479182 0 -1 0
35 3 2 0.0 54.38626827863589 170.8609271587107 132.6652712755152 0 -1 0
161 12 2 0.0 129.78282695772586 30.04697170313598 137.6131036434571 0 0 0
156 12 2 0.0 125.87388679454178 36.09167435971898 133.83164008686688 0 0 0
162 12 2 0.0 130.51899613378617 33.757431070568224 136.7151674079223 0 0 0
39 3 1 0.0 53.188157539805296 167.3147873770786 133.7023553074294 0 -1 0
37 3 2 0.0 50.863508850310204 167.04436606505664 133.68402428676995 0 -1 0
36 3 2 0.0 54.19034514026985 168.03943894339278 135.04909895778766 0 -1 0
43 4 2 0.0 38.5358021105565 11.519355374287414 159.7346769174897 0 0 -1
53 4 1 0.0 41.84807001611212 12.644939937594575 158.0997481482392 0 0 -1
50 4 2 0.0 45.04185560539725 17.399443803163425 155.97946327291123 0 0 -1
208 15 1 0.0 116.61904656075339 26.443417884544008 157.2668529574785 0 0 0
209 15 2 0.0 119.01048012870231 24.073071504819 155.8114932054787 0 0 0
207 15 1 0.0 113.91548987811056 23.817953301296836 157.54320130558372 0 0 0
206 15 1 0.0 116.00904087378123 26.91078779085645 157.19128084441195 0 0 0
205 15 2 0.0 118.27748548935472 27.93397983132412 159.98069781657546 0 0 0
210 15 2 0.0 118.55261887536264 20.57607770618815 157.0444543281458 0 0 0
197 15 2 0.0 110.76707461748566 26.33168689730448 156.82741706079548 0 0 0
199 15 1 0.0 113.03450033419344 26.98677542365314 159.61605875062756 0 0 0
201 15 1 0.0 113.11104008554177 27.114943418939543 159.93784926762393 0 0 0
198 15 2 0.0 111.71546665083686 29.8421249355169 158.1073986487225 0 0 0
44 4 2 0.0 39.97095420249497 8.61467747299942 161.26183404692088 0 0 -1
46 4 1 0.0 45.52042130829991 10.758382397403883 158.32480072700994 0 0 -1
45 4 1 0.0 43.70811277250308 8.47227768167646 160.44833246914266 0 0 -1
47 4 1 0.0 47.54742770044904 10.188066730458477 161.43928065399135 0 0 -1
49 4 2 0.0 46.14985676302229 15.95225041895925 159.30194909782549 0 0 -1
56 4 2 0.0 40.36364694109541 12.977772519134215 166.3710309260867 0 0 -1
54 4 1 0.0 44.023518294657094 12.66884996077128 160.98984187656347 0 0 -1
52 4 1 0.0 43.924478560589684 12.63207490045032 161.21838570328583 0 0 -1
51 4 2 0.0 43.74731111874971 15.529667041170697 158.73074439722555 0 0 -1
55 4 2 0.0 41.736803417708 11.26778890074959 163.6607989948182 0 0 -1
48 4 1 0.0 47.35524677916339 12.515950591068366 158.69946915808984 0 0 -1
202 15 1 0.0 115.98643502551874 24.87968508609157 160.89301323926753 0 0 0
200 15 1 0.0 115.82454118901359 25.06829899342234 160.9888019267219 0 0 0
203 15 2 0.0 114.85080021141906 27.462860445263185 163.29893997376206 0 0 0
204 15 2 0.0 118.55437624148924 26.444801986886155 163.24660319106272 0 0 0
259 19 2 0.0 163.24418652399893 178.43985602858987 170.7466114535775 0 -1 -1
260 19 2 0.0 161.66478976587695 1.8960023622795485 170.22469725129938 0 0 -1
290 21 1 0.0 166.6406487662735 3.714570329950275 171.11100008318527 0 0 0
292 21 1 0.0 166.587159787874 3.8309876573578365 171.22861660694647 0 0 0
256 19 1 0.0 166.46018223638376 179.7761395156048 170.38211032047556 0 -1 -1
258 19 1 0.0 166.75928560844022 179.67901738169002 169.95043360507435 0 -1 -1
291 21 1 0.0 169.642600239151 2.279344775809636 169.61113152896758 0 0 0
289 21 2 0.0 168.08304255027366 3.5200473382797326 167.82017105268747 0 0 0
284 21 1 0.0 167.08796111538015 3.770969010350399 175.04858303765573 0 0 0
286 21 1 0.0 166.92443771149073 3.7531268648954694 175.17925723177166 0 0 0
282 21 2 0.0 161.9694731787403 2.095159276389956 176.29612223405056 0 0 0
283 21 1 0.0 163.4753608583353 4.171425957304066 173.87361726279335 0 0 0
281 21 2 0.0 162.42468844374915 3.4818363560512937 172.92818511405534 0 0 0
262 19 1 0.0 164.7739677963746 0.6247391313231548 173.65553438753233 0 0 -1
264 19 1 0.0 164.70668190765576 0.6666234283260327 173.691955972646 0 0 -1
287 21 2 0.0 169.7416148910091 6.254131208695651 174.04918415330934 0 0 0
285 21 1 0.0 170.26167231689377 4.528187720871573 173.2714193878677 0 0 0
257 19 1 0.0 168.75485265737223 0.8100466725983965 173.0784047644643 0 0 -1
255 19 1 0.0 168.76255605614554 0.9435365276446124 173.1208846542152 0 0 -1
288 21 2 0.0 169.48249560378923 6.016174940046219 170.3594064115962 0 0 0
293 21 2 0.0 166.04864235491127 7.370056459280131 170.18435281183022 0 0 0
294 21 2 0.0 165.13552797427826 8.627339504460588 173.71658584391457 0 0 0
304 22 1 0.0 129.60590824836706 87.20440711537518 178.72134139458475 0 0 -1
306 22 1 0.0 130.27629193929386 86.6043242175398 179.6050765198626 0 0 -1
303 22 2 0.0 132.65715157633795 88.85507830014546 177.68787938396216 0 0 -1
302 22 2 0.0 134.5485049560164 92.27389116539986 178.5008274338462 0 0 -1
301 22 2 0.0 132.8353508741232 92.1344182802881 175.14196738494823 0 0 -1
300 22 1 0.0 132.55828976478378 90.21053575727397 178.35664053274607 0 0 -1
261 19 2 0.0 161.557904497162 178.9543393213151 172.58892554238892 0 -1 -1
265 19 2 0.0 165.2327723758465 176.96534629262746 173.9625437707397 0 -1 -1
263 19 1 0.0 166.81978450573993 177.5816563271411 173.60455812384674 0 -1 -1
254 19 2 0.0 169.4950420102416 0.8036354172960205 176.66766442950663 0 0 -1
266 19 2 0.0 168.8050231806 177.2320186410039 173.86175528014087 0 -1 -1

Velocities

308 -0.0027302500035927017 -0.0007051928264256189 0.0002934288807395865
305 -0.000887213150225738 0.0013011274217787875 -0.0017593264327457967
295 0.00012047202301235952 0.0007335546275508832 0.004042672437010328
307 -0.0038676543485715344 0.0019476176552226973 0.00010432496283293705
298 -0.0013555128984051904 -0.00021357667186905924 0.0011370176904489308
299 -0.0033890137318070765 -0.004585051208037958 -0.001472252780395514
297 0.0008865454719421979 -0.0009326038751299309 0.0038914962946666487
296 0.0034614708028247333 0.0018580940805643402 -0.000999103519540463
96 0.00146214789686997 0.0016710133329585302 0.0023737644836216254
95 -0.001169447478557883 0.0035939912990040736 0.0009335825631043191
97 -0.0018677352308123043 -0.00093578146455271 -0.0006033833649757135
134 -0.0016833123049662258 0.00029181195499090184 0.002710391165735982
1 0.003286748354990817 0.000480902235883854 -0.0010285491738782962
5 0.0002625916900441457 0.0031322669916958967 -0.004366341874281755
3 -0.0018655155122310153 -0.0019863772403309076 -0.0008901780257760297
2 -0.0028368588431740794 -0.0023784719023442823 0.0027927856196174154
10 0.0008797698964738902 0.0018636893692023514 -0.0048353231068797315
11 -0.0019342905158529545 0.0005061794456968791 -0.001562581827783553
12 -0.0013690761699799853 0.0018623279756365026 0.0017424641286435214
9 0.0005512988324575443 0.00014832133832372142 0.0005489018085675124
13 0.000385180415885292 0.00039534730769385693 0.003595450817778648
347 0.0012866338161886858 0.0007017528197584431 -0.0021690375233674422
345 0.004406961713776766 -0.0032292686298945484 -0.004036695251974842
344 0.004161401075141196 0.0005475417532966729 0.0022804666777224564
341 -0.0013702018768244528 -0.0004727595381834004 -0.0016345346163683951