ITEM: TIMESTEP
0
ITEM: NUMBER OF ATOMS
378
ITEM: BOX BOUNDS pp pp pp
0.0000000000000000e+00 1.8000000000000000e+02
0.0000000000000000e+00 1.8000000000000000e+02
0.0000000000000000e+00 1.8000000000000000e+02
ITEM: ATOMS id mol type x y z ix iy iz
1 1 2 0 4.4 0 0 0 0
3 1 1 6.4 4.4 0 0 0 0
5 1 1 12.8 4.4 0 0 0 0
7 1 2 19.2 4.4 0 0 0 0
9 1 2 25.6 4.4 0 0 0 0
11 1 1 32 4.4 0 0 0 0
13 1 2 38.4 4.4 0 0 0 0
253 19 2 120 4.4 0 0 0 0
255 19 1 126.4 4.4 0 0 0 0
257 19 1 132.8 4.4 0 0 0 0
259 19 2 139.2 4.4 0 0 0 0
261 19 2 145.6 4.4 0 0 0 0
263 19 1 152 4.4 0 0 0 0
265 19 2 158.4 4.4 0 0 0 0
308 22 2 1.6 55.6 5.38845e-16 1 0 0
44 4 2 23.2 55.6 5.38845e-16 0 0 0
46 4 1 29.6 55.6 5.38845e-16 0 0 0
48 4 1 36 55.6 5.38845e-16 0 0 0
50 4 2 42.4 55.6 5.38845e-16 0 0 0
52 4 1 48.8 55.6 5.38845e-16 0 0 0
54 4 1 55.2 55.6 5.38845e-16 0 0 0
56 4 2 61.6 55.6 5.38845e-16 0 0 0
296 22 2 143.2 55.6 5.38845e-16 0 0 0
298 22 1 149.6 55.6 5.38845e-16 0 0 0
300 22 1 156 55.6 5.38845e-16 0 0 0
302 22 2 162.4 55.6 5.38845e-16 0 0 0
304 22 1 168.8 55.6 5.38845e-16 0 0 0
306 22 1 175.2 55.6 5.38845e-16 0 0 0
43 4 2 20 64.4 0 0 0 0
45 4 1 26.4 64.4 0 0 0 0
47 4 1 32.8 64.4 0 0 0 0
49 4 2 39.2 64.4 0 0 0 0
51 4 2 45.6 64.4 0 0 0 0
53 4 1 52 64.4 0 0 0 0
55 4 2 58.4 64.4 0 0 0 0
295 22 2 140 64.4 0 0 0 0
297 22 1 146.4 64.4 0 0 0 0
299 22 1 152.8 64.4 0 0 0 0
301 22 2 159.2 64.4 0 0 0 0
303 22 2 165.6 64.4 0 0 0 0
305 22 1 172 64.4 0 0 0 0
307 22 2 178.4 64.4 0 0 0 0
86 7 2 3.2 115.6 5.38845e-16 0 0 0
88 7 1 9.6 115.6 5.38845e-16 0 0 0
90 7 1 16 115.6 5.38845e-16 0 0 0
92 7 2 22.4 115.6 5.38845e-16 0 0 0
94 7 1 28.8 115.6 5.38845e-16 0 0 0
96 7 1 35.2 115.6 5.38845e-16 0 0 0
98 7 2 41.6 115.6 5.38845e-16 0 0 0
338 25 2 123.2 115.6 5.38845e-16 0 0 0
340 25 1 129.6 115.6 5.38845e-16 0 0 0
342 25 1 136 115.6 5.38845e-16 0 0 0
344 25 2 142.4 115.6 5.38845e-16 0 0 0
346 25 1 148.8 115.6 5.38845e-16 0 0 0
348 25 1 155.2 115.6 5.38845e-16 0 0 0
350 25 2 161.6 115.6 5.38845e-16 0 0 0
85 7 2 0 124.4 0 0 0 0
87 7 1 6.4 124.4 0 0 0 0
89 7 1 12.8 124.4 0 0 0 0
91 7 2 19.2 124.4 0 0 0 0
93 7 2 25.6 124.4 0 0 0 0
95 7 1 32 124.4 0 0 0 0
97 7 2 38.4 124.4 0 0 0 0
337 25 2 120 124.4 0 0 0 0
339 25 1 126.4 124.4 0 0 0 0
341 25 1 132.8 124.4 0 0 0 0
343 25 2 139.2 124.4 0 0 0 0
345 25 2 145.6 124.4 0 0 0 0
347 25 1 152 124.4 0 0 0 0
349 25 2 158.4 124.4 0 0 0 0
2 1 2 3.2 175.6 5.38845e-16 0 -1 0
4 1 1 9.6 175.6 5.38845e-16 0 -1 0
6 1 1 16 175.6 5.38845e-16 0 -1 0
8 1 2 22.4 175.6 5.38845e-16 0 -1 0
10 1 1 28.8 175.6 5.38845e-16 0 -1 0
12 1 1 35.2 175.6 5.38845e-16 0 -1 0
14 1 2 41.6 175.6 5.38845e-16 0 -1 0
254 19 2 123.2 175.6 5.38845e-16 0 -1 0
256 19 1 129.6 175.6 5.38845e-16 0 -1 0
258 19 1 136 175.6 5.38845e-16 0 -1 0
260 19 2 142.4 175.6 5.38845e-16 0 -1 0
262 19 1 148.8 175.6 5.38845e-16 0 -1 0
264 19 1 155.2 175.6 5.38845e-16 0 -1 0
266 19 2 161.6 175.6 5.38845e-16 0 -1 0
127 10 2 60 4.4 20 0 0 0
129 10 1 66.4 4.4 20 0 0 0
131 10 1 72.8 4.4 20 0 0 0
133 10 2 79.2 4.4 20 0 0 0
135 10 2 85.6 4.4 20 0 0 0
137 10 1 92 4.4 20 0 0 0
139 10 2 98.4 4.4 20 0 0 0
170 13 2 83.2 55.6 20 0 0 0
172 13 1 89.6 55.6 20 0 0 0
174 13 1 96 55.6 20 0 0 0
176 13 2 102.4 55.6 20 0 0 0
178 13 1 108.8 55.6 20 0 0 0
180 13 1 115.2 55.6 20 0 0 0
182 13 2 121.6 55.6 20 0 0 0
169 13 2 80 64.4 20 0 0 0
171 13 1 86.4 64.4 20 0 0 0
173 13 1 92.8 64.4 20 0 0 0
175 13 2 99.2 64.4 20 0 0 0
177 13 2 105.6 64.4 20 0 0 0
179 13 1 112 64.4 20 0 0 0
181 13 2 118.4 64.4 20 0 0 0
212 16 2 63.2 115.6 20 0 0 0
214 16 1 69.6 115.6 20 0 0 0
216 16 1 76 115.6 20 0 0 0
218 16 2 82.4 115.6 20 0 0 0
220 16 1 88.8 115.6 20 0 0 0
222 16 1 95.2 115.6 20 0 0 0
224 16 2 101.6 115.6 20 0 0 0
211 16 2 60 124.4 20 0 0 0
213 16 1 66.4 124.4 20 0 0 0
215 16 1 72.8 124.4 20 0 0 0
217 16 2 79.2 124.4 20 0 0 0
219 16 2 85.6 124.4 20 0 0 0
221 16 1 92 124.4 20 0 0 0
223 16 2 98.4 124.4 20 0 0 0
128 10 2 63.2 175.6 20 0 -1 0
130 10 1 69.6 175.6 20 0 -1 0
132 10 1 76 175.6 20 0 -1 0
134 10 2 82.4 175.6 20 0 -1 0
136 10 1 88.8 175.6 20 0 -1 0
138 10 1 95.2 175.6 20 0 -1 0
140 10 2 101.6 175.6 20 0 -1 0
16 2 2 3.2 15.6 60 0 0 0
18 2 1 9.6 15.6 60 0 0 0
20 2 1 16 15.6 60 0 0 0
22 2 2 22.4 15.6 60 0 0 0
24 2 1 28.8 15.6 60 0 0 0
26 2 1 35.2 15.6 60 0 0 0
28 2 2 41.6 15.6 60 0 0 0
268 20 2 123.2 15.6 60 0 0 0
270 20 1 129.6 15.6 60 0 0 0
272 20 1 136 15.6 60 0 0 0
274 20 2 142.4 15.6 60 0 0 0
276 20 1 148.8 15.6 60 0 0 0
278 20 1 155.2 15.6 60 0 0 0
280 20 2 161.6 15.6 60 0 0 0
15 2 2 0 24.4 60 0 0 0
17 2 1 6.4 24.4 60 0 0 0
19 2 1 12.8 24.4 60 0 0 0
21 2 2 19.2 24.4 60 0 0 0
23 2 2 25.6 24.4 60 0 0 0
25 2 1 32 24.4 60 0 0 0
27 2 2 38.4 24.4 60 0 0 0
267 20 2 120 24.4 60 0 0 0
269 20 1 126.4 24.4 60 0 0 0
271 20 1 132.8 24.4 60 0 0 0
273 20 2 139.2 24.4 60 0 0 0
275 20 2 145.6 24.4 60 0 0 0
277 20 1 152 24.4 60 0 0 0
279 20 2 158.4 24.4 60 0 0 0
322 23 2 1.6 75.6 60 1 0 0
58 5 2 23.2 75.6 60 0 0 0
60 5 1 29.6 75.6 60 0 0 0
62 5 1 36 75.6 60 0 0 0
64 5 2 42.4 75.6 60 0 0 0
66 5 1 48.8 75.6 60 0 0 0
68 5 1 55.2 75.6 60 0 0 0
70 5 2 61.6 75.6 60 0 0 0
310 23 2 143.2 75.6 60 0 0 0
312 23 1 149.6 75.6 60 0 0 0
314 23 1 156 75.6 60 0 0 0
316 23 2 162.4 75.6 60 0 0 0
318 23 1 168.8 75.6 60 0 0 0
320 23 1 175.2 75.6 60 0 0 0
57 5 2 20 84.4 60 0 0 0
59 5 1 26.4 84.4 60 0 0 0
61 5 1 32.8 84.4 60 0 0 0
63 5 2 39.2 84.4 60 0 0 0
65 5 2 45.6 84.4 60 0 0 0
67 5 1 52 84.4 60 0 0 0
69 5 2 58.4 84.4 60 0 0 0
309 23 2 140 84.4 60 0 0 0
311 23 1 146.4 84.4 60 0 0 0
313 23 1 152.8 84.4 60 0 0 0
315 23 2 159.2 84.4 60 0 0 0
317 23 2 165.6 84.4 60 0 0 0
319 23 1 172 84.4 60 0 0 0
321 23 2 178.4 84.4 60 0 0 0
100 8 2 3.2 135.6 60 0 0 0
102 8 1 9.6 135.6 60 0 0 0
104 8 1 16 135.6 60 0 0 0
106 8 2 22.4 135.6 60 0 0 0
108 8 1 28.8 135.6 60 0 0 0
110 8 1 35.2 135.6 60 0 0 0
112 8 2 41.6 135.6 60 0 0 0
352 26 2 123.2 135.6 60 0 0 0
354 26 1 129.6 135.6 60 0 0 0
356 26 1 136 135.6 60 0 0 0
358 26 2 142.4 135.6 60 0 0 0
360 26 1 148.8 135.6 60 0 0 0
362 26 1 155.2 135.6 60 0 0 0
364 26 2 161.6 135.6 60 0 0 0
99 8 2 0 144.4 60 0 0 0
101 8 1 6.4 144.4 60 0 0 0
103 8 1 12.8 144.4 60 0 0 0
105 8 2 19.2 144.4 60 0 0 0
107 8 2 25.6 144.4 60 0 0 0
109 8 1 32 144.4 60 0 0 0
111 8 2 38.4 144.4 60 0 0 0
351 26 2 120 144.4 60 0 0 0
353 26 1 126.4 144.4 60 0 0 0
355 26 1 132.8 144.4 60 0 0 0
357 26 2 139.2 144.4 60 0 0 0
359 26 2 145.6 144.4 60 0 0 0
361 26 1 152 144.4 60 0 0 0
363 26 2 158.4 144.4 60 0 0 0
142 11 2 63.2 15.6 80 0 0 0
144 11 1 69.6 15.6 80 0 0 0
146 11 1 76 15.6 80 0 0 0
148 11 2 82.4 15.6 80 0 0 0
150 11 1 88.8 15.6 80 0 0 0
152 11 1 95.2 15.6 80 0 0 0
154 11 2 101.6 15.6 80 0 0 0
141 11 2 60 24.4 80 0 0 0
143 11 1 66.4 24.4 80 0 0 0
145 11 1 72.8 24.4 80 0 0 0
147 11 2 79.2 24.4 80 0 0 0
149 11 2 85.6 24.4 80 0 0 0
151 11 1 92 24.4 80 0 0 0
153 11 2 98.4 24.4 80 0 0 0
184 14 2 83.2 75.6 80 0 0 0
186 14 1 89.6 75.6 80 0 0 0
188 14 1 96 75.6 80 0 0 0
190 14 2 102.4 75.6 80 0 0 0
192 14 1 108.8 75.6 80 0 0 0
194 14 1 115.2 75.6 80 0 0 0
196 14 2 121.6 75.6 80 0 0 0
183 14 2 80 84.4 80 0 0 0
185 14 1 86.4 84.4 80 0 0 0
187 14 1 92.8 84.4 80 0 0 0
189 14 2 99.2 84.4 80 0 0 0
191 14 2 105.6 84.4 80 0 0 0
193 14 1 112 84.4 80 0 0 0
195 14 2 118.4 84.4 80 0 0 0
226 17 2 63.2 135.6 80 0 0 0
228 17 1 69.6 135.6 80 0 0 0
230 17 1 76 135.6 80 0 0 0
232 17 2 82.4 135.6 80 0 0 0
234 17 1 88.8 135.6 80 0 0 0
236 17 1 95.2 135.6 80 0 0 0
238 17 2 101.6 135.6 80 0 0 0
225 17 2 60 144.4 80 0 0 0
227 17 1 66.4 144.4 80 0 0 0
229 17 1 72.8 144.4 80 0 0 0
231 17 2 79.2 144.4 80 0 0 0
233 17 2 85.6 144.4 80 0 0 0
235 17 1 92 144.4 80 0 0 0
237 17 2 98.4 144.4 80 0 0 0
29 3 2 0 4.4 120 0 0 0
31 3 1 6.4 4.4 120 0 0 0
33 3 1 12.8 4.4 120 0 0 0
35 3 2 19.2 4.4 120 0 0 0
37 3 2 25.6 4.4 120 0 0 0
39 3 1 32 4.4 120 0 0 0
41 3 2 38.4 4.4 120 0 0 0
281 21 2 120 4.4 120 0 0 0
283 21 1 126.4 4.4 120 0 0 0
285 21 1 132.8 4.4 120 0 0 0
287 21 2 139.2 4.4 120 0 0 0
289 21 2 145.6 4.4 120 0 0 0
291 21 1 152 4.4 120 0 0 0
293 21 2 158.4 4.4 120 0 0 0
336 24 2 1.6 55.6 120 1 0 0
72 6 2 23.2 55.6 120 0 0 0
74 6 1 29.6 55.6 120 0 0 0
76 6 1 36 55.6 120 0 0 0
78 6 2 42.4 55.6 120 0 0 0
80 6 1 48.8 55.6 120 0 0 0
82 6 1 55.2 55.6 120 0 0 0
84 6 2 61.6 55.6 120 0 0 0
324 24 2 143.2 55.6 120 0 0 0
326 24 1 149.6 55.6 120 0 0 0
328 24 1 156 55.6 120 0 0 0
330 24 2 162.4 55.6 120 0 0 0
332 24 1 168.8 55.6 120 0 0 0
334 24 1 175.2 55.6 120 0 0 0
71 6 2 20 64.4 120 0 0 0
73 6 1 26.4 64.4 120 0 0 0
75 6 1 32.8 64.4 120 0 0 0
77 6 2 39.2 64.4 120 0 0 0
79 6 2 45.6 64.4 120 0 0 0
81 6 1 52 64.4 120 0 0 0
83 6 2 58.4 64.4 120 0 0 0
323 24 2 140 64.4 120 0 0 0
325 24 1 146.4 64.4 120 0 0 0
327 24 1 152.8 64.4 120 0 0 0
329 24 2 159.2 64.4 120 0 0 0
331 24 2 165.6 64.4 120 0 0 0
333 24 1 172 64.4 120 0 0 0
335 24 2 178.4 64.4 120 0 0 0
114 9 2 3.2 115.6 120 0 0 0
116 9 1 9.6 115.6 120 0 0 0
118 9 1 16 115.6 120 0 0 0
120 9 2 22.4 115.6 120 0 0 0
122 9 1 28.8 115.6 120 0 0 0
124 9 1 35.2 115.6 120 0 0 0
126 9 2 41.6 115.6 120 0 0 0
366 27 2 123.2 115.6 120 0 0 0
368 27 1 129.6 115.6 120 0 0 0
370 27 1 136 115.6 120 0 0 0
372 27 2 142.4 115.6 120 0 0 0
374 27 1 148.8 115.6 120 0 0 0
376 27 1 155.2 115.6 120 0 0 0
378 27 2 161.6 115.6 120 0 0 0
113 9 2 0 124.4 120 0 0 0
115 9 1 6.4 124.4 120 0 0 0
117 9 1 12.8 124.4 120 0 0 0
119 9 2 19.2 124.4 120 0 0 0
121 9 2 25.6 124.4 120 0 0 0
123 9 1 32 124.4 120 0 0 0
125 9 2 38.4 124.4 120 0 0 0
365 27 2 120 124.4 120 0 0 0
367 27 1 126.4 124.4 120 0 0 0
369 27 1 132.8 124.4 120 0 0 0
371 27 2 139.2 124.4 120 0 0 0
373 27 2 145.6 124.4 120 0 0 0
375 27 1 152 124.4 120 0 0 0
377 27 2 158.4 124.4 120 0 0 0
30 3 2 3.2 175.6 120 0 -1 0
32 3 1 9.6 175.6 120 0 -1 0
34 3 1 16 175.6 120 0 -1 0
36 3 2 22.4 175.6 120 0 -1 0
38 3 1 28.8 175.6 120 0 -1 0
40 3 1 35.2 175.6 120 0 -1 0
42 3 2 41.6 175.6 120 0 -1 0
282 21 2 123.2 175.6 120 0 -1 0
284 21 1 129.6 175.6 120 0 -1 0
286 21 1 136 175.6 120 0 -1 0
288 21 2 142.4 175.6 120 0 -1 0
290 21 1 148.8 175.6 120 0 -1 0
292 21 1 155.2 175.6 120 0 -1 0
294 21 2 161.6 175.6 120 0 -1 0
155 12 2 60 4.4 140 0 0 0
157 12 1 66.4 4.4 140 0 0 0
159 12 1 72.8 4.4 140 0 0 0
161 12 2 79.2 4.4 140 0 0 0
163 12 2 85.6 4.4 140 0 0 0
165 12 1 92 4.4 140 0 0 0
167 12 2 98.4 4.4 140 0 0 0
198 15 2 83.2 55.6 140 0 0 0
200 15 1 89.6 55.6 140 0 0 0
202 15 1 96 55.6 140 0 0 0
204 15 2 102.4 55.6 140 0 0 0
206 15 1 108.8 55.6 140 0 0 0
208 15 1 115.2 55.6 140 0 0 0
210 15 2 121.6 55.6 140 0 0 0
197 15 2 80 64.4 140 0 0 0
199 15 1 86.4 64.4 140 0 0 0
201 15 1 92.8 64.4 140 0 0 0
203 15 2 99.2 64.4 140 0 0 0
205 15 2 105.6 64.4 140 0 0 0
207 15 1 112 64.4 140 0 0 0
209 15 2 118.4 64.4 140 0 0 0
240 18 2 63.2 115.6 140 0 0 0
242 18 1 69.6 115.6 140 0 0 0
244 18 1 76 115.6 140 0 0 0
246 18 2 82.4 115.6 140 0 0 0
248 18 1 88.8 115.6 140 0 0 0
250 18 1 95.2 115.6 140 0 0 0
252 18 2 101.6 115.6 140 0 0 0
239 18 2 60 124.4 140 0 0 0
241 18 1 66.4 124.4 140 0 0 0
243 18 1 72.8 124.4 140 0 0 0
245 18 2 79.2 124.4 140 0 0 0
247 18 2 85.6 124.4 140 0 0 0
249 18 1 92 124.4 140 0 0 0
251 18 2 98.4 124.4 140 0 0 0
156 12 2 63.2 175.6 140 0 -1 0
158 12 1 69.6 175.6 140 0 -1 0
160 12 1 76 175.6 140 0 -1 0
162 12 2 82.4 175.6 140 0 -1 0
164 12 1 88.8 175.6 140 0 -1 0
166 12 1 95.2 175.6 140 0 -1 0
168 12 2 101.6 175.6 140 0 -1 0
ITEM: TIMESTEP
5000
ITEM: NUMBER OF ATOMS
378
ITEM: BOX BOUNDS pp pp pp
0.0000000000000000e+00 1.8000000000000000e+02
0.0000000000000000e+00 1.8000000000000000e+02
0.0000000000000000e+00 1.8000000000000000e+02
ITEM: ATOMS id mol type x y z ix iy iz
55 4 2 45.2409 58.1612 1.13726 0 0 0
56 4 2 43.203 58.1308 3.42507 0 0 0
53 4 1 41.1337 60.5284 0.279893 0 0 0
304 22 1 162.975 61.515 6.08106 0 0 0
303 22 2 163.057 60.7863 2.0745 0 0 0
92 7 2 14.5548 119.342 0.50513 0 0 0
87 7 1 23.1065 122.96 1.00143 0 0 0
341 25 1 146.693 121.165 2.62213 0 0 0
88 7 1 21.5752 127.004 2.39861 0 0 0
2 1 2 19.608 170.838 6.25744 0 -1 0
6 1 1 18.6714 172.546 0.507435 0 -1 0
3 1 1 19.1055 172.338 2.12695 0 -1 0
1 1 2 22.0407 168.117 3.15413 0 -1 0
4 1 1 19.7046 176.45 0.856567 0 -1 0
254 19 2 137.522 174.256 5.89073 0 -1 0
253 19 2 136.128 177.747 6.66455 0 -1 0
260 19 2 141.965 179.691 5.06406 0 -1 0
261 19 2 140.929 177.454 1.02812 0 -1 0
263 19 1 140.62 179.412 0.0163939 0 -1 0
308 22 2 161.62 57.946 13.8392 0 0 0
307 22 2 158.96 60.5044 12.1124 0 0 0
305 22 1 165.301 62.3661 8.77352 0 0 0
306 22 1 162.299 63.6639 11.4334 0 0 0
256 19 1 138.625 172.701 10.5775 0 -1 0
255 19 1 136.479 176.463 9.97748 0 -1 0
257 19 1 137.476 175.955 8.50888 0 -1 0
259 19 2 142.661 179.859 8.60439 0 -1 0
258 19 1 141.173 176.53 8.06265 0 -1 0
129 10 1 79.8482 2.36427 18.5731 0 0 0
131 10 1 79.8542 1.60283 20.3958 0 0 0
128 10 2 82.9186 2.62268 17.0109 0 0 0
127 10 2 87.2148 3.9316 18.4718 0 0 0
171 13 1 105.696 58.325 19.2996 0 0 0
175 13 2 100.731 59.2336 20.3256 0 0 0
169 13 2 104.675 58.7085 18.6339 0 0 0
173 13 1 103.166 62.1368 17.484 0 0 0
172 13 1 107.291 62.5453 18.0738 0 0 0
211 16 2 79.1899 128.361 20.5275 0 0 0
140 10 2 77.9225 175.088 20.3161 0 -1 0
130 10 1 77.6535 4.43089 21.922 0 0 0
133 10 2 77.5583 2.03078 25.7021 0 0 0
132 10 1 79.3468 4.38841 22.6906 0 0 0
178 13 1 98.3992 59.4613 22.9484 0 0 0
170 13 2 103.043 56.3126 21.2786 0 0 0
177 13 2 101.948 59.6574 21.0366 0 0 0
174 13 1 101.532 62.0605 21.1018 0 0 0
182 13 2 103.854 66.4272 26.1668 0 0 0
179 13 1 100.166 60.9506 25.3336 0 0 0
180 13 1 103.327 63.9418 24.8334 0 0 0
176 13 2 100.525 63.128 21.4143 0 0 0
181 13 2 106.367 66.813 22.1464 0 0 0
215 16 1 77.9334 126.18 25.1154 0 0 0
222 16 1 83.2569 124.384 26.753 0 0 0
221 16 1 83.6801 126.603 25.5872 0 0 0
223 16 2 88.0943 124.169 27.6406 0 0 0
213 16 1 77.3744 128.508 21.6424 0 0 0
212 16 2 79.6919 131.533 24.549 0 0 0
214 16 1 77.8524 130.03 25.2237 0 0 0
220 16 1 81.5213 128.848 27.3961 0 0 0
224 16 2 90.0253 127.198 26.4496 0 0 0
139 10 2 73.2536 175.053 21.2504 0 -1 0
137 10 1 72.3184 176.316 25.6493 0 -1 0
136 10 1 72.7818 178.25 22.8598 0 -1 0
134 10 2 77.8189 179.05 27.6157 0 -1 0
135 10 2 75.1343 176.93 27.1265 0 -1 0
138 10 1 75.6354 178.216 23.7951 0 -1 0
217 16 2 77.9343 122.911 29.1398 0 0 0
218 16 2 76.5593 125.605 29.9227 0 0 0
219 16 2 77.8989 129.396 29.2493 0 0 0
216 16 1 76.3205 127.99 27.8905 0 0 0
102 8 1 20.2377 132.776 54.375 0 0 0
104 8 1 23.022 136.895 54.5969 0 0 0
103 8 1 20.4864 136.286 52.1484 0 0 0
278 20 1 141.652 11.6873 60.1634 0 0 0
15 2 2 19.2989 14.7708 61.4503 0 0 0
19 2 1 25.2981 19.2062 59.9037 0 0 0
279 20 2 139.441 15.2025 61.1308 0 0 0
277 20 1 142.341 13.5524 56.7517 0 0 0
276 20 1 143.146 17.5967 57.8949 0 0 0
275 20 2 142.136 18.5553 61.6229 0 0 0
21 2 2 22.7371 24.5515 58.4894 0 0 0
20 2 1 23.3726 20.3229 57.1176 0 0 0
274 20 2 139.291 22.7035 60.4954 0 0 0
267 20 2 143.506 25.3086 60.9181 0 0 0
270 20 1 144.969 23.265 59.0567 0 0 0
271 20 1 146.657 22.5435 57.5411 0 0 0
272 20 1 142.211 23.082 58.3942 0 0 0
269 20 1 143.372 24.7954 61.0183 0 0 0
273 20 2 140.467 20.2882 60.7902 0 0 0
27 2 2 13.5413 31.7879 60.0541 0 0 0
28 2 2 14.2531 31.2173 56.4077 0 0 0
25 2 1 14.8619 28.6169 59.2475 0 0 0
26 2 1 14.5496 30.0306 57.3022 0 0 0
22 2 2 20.2933 27.9392 60.9534 0 0 0
318 23 1 165.066 78.5143 61.9181 0 0 0
320 23 1 165.711 76.3858 62.0487 0 0 0
322 23 2 172.689 76.3171 59.2976 0 0 0
321 23 2 170.142 74.8087 60.5862 0 0 0
312 23 1 159.931 83.5682 60.111 0 0 0
311 23 1 156.573 81.9225 59.0489 0 0 0
314 23 1 160.411 84.0295 58.7331 0 0 0
315 23 2 164.801 83.7469 60.1473 0 0 0
316 23 2 165.119 80.1156 60.1131 0 0 0
313 23 1 162.998 83.5733 62.0017 0 0 0
109 8 1 25.6402 124.277 59.8392 0 0 0
108 8 1 28.2177 126.622 59.4568 0 0 0
100 8 2 15.6427 128.512 55.9317 0 0 0
101 8 1 16.1165 131.32 56.5549 0 0 0
99 8 2 16.3706 131.457 57.5801 0 0 0
110 8 1 22.8771 128.059 60.3591 0 0 0
111 8 2 23.1428 130.614 60.9676 0 0 0
107 8 2 26.8614 130.24 60.5857 0 0 0
106 8 2 25.0266 134.514 59.3686 0 0 0
105 8 2 26.4597 136.571 57.0396 0 0 0
357 26 2 138.962 136.804 60.103 0 0 0
356 26 1 141.835 136.114 60.203 0 0 0
355 26 1 141.297 141.2 59.3839 0 0 0
354 26 1 146.382 141.202 57.9676 0 0 0
353 26 1 146.241 140.192 61.4828 0 0 0
16 2 2 21.0173 16.2917 64.354 0 0 0
17 2 1 24.0902 18.2129 64.5663 0 0 0
280 20 2 139.993 14.8037 66.2565 0 0 0
23 2 2 19.1794 25.8642 64.6529 0 0 0
18 2 1 26.1509 22.1628 63.173 0 0 0
24 2 1 17.2699 28.718 63.0737 0 0 0
268 20 2 141.879 28.1883 63.9733 0 0 0
60 5 1 44.3351 71.3064 69.2003 0 0 0
65 5 2 33.1931 76.3765 64.189 0 0 0
64 5 2 34.9112 78.1877 66.4942 0 0 0
66 5 1 34.4765 79.2235 64.7971 0 0 0
67 5 1 35.3746 77.9766 67.9217 0 0 0
319 23 1 167.049 79.6611 65.1597 0 0 0
70 5 2 39.0389 84.2113 69.0371 0 0 0
69 5 2 37.957 80.8496 66.8513 0 0 0
309 23 2 154.061 82.5255 63.3818 0 0 0
310 23 2 157.377 83.7025 62.6916 0 0 0
317 23 2 168.237 80.4729 63.7499 0 0 0
112 8 2 19.4335 130.591 62.6716 0 0 0
363 26 2 132.536 133.201 68.7649 0 0 0
362 26 1 134.493 132.642 65.0579 0 0 0
360 26 1 138.278 131.909 65.4436 0 0 0
361 26 1 134.929 128.835 62.7646 0 0 0
364 26 2 133.151 133.891 65.0949 0 0 0
358 26 2 138.7 139.034 64.007 0 0 0
359 26 2 140.605 135.536 64.0845 0 0 0
352 26 2 147.949 137.661 64.4324 0 0 0
351 26 2 152.525 139.745 62.392 0 0 0
141 11 2 78.869 25.3956 72.1433 0 0 0
143 11 1 78.9035 25.608 75.9823 0 0 0
142 11 2 81.4763 29.5932 73.4422 0 0 0
57 5 2 39.7537 67.3709 75.2288 0 0 0
58 5 2 41.61 67.3347 71.7138 0 0 0
59 5 1 45.1399 68.7749 71.3275 0 0 0
62 5 1 37.7347 73.4696 69.6988 0 0 0
63 5 2 38.6142 76.3562 69.9406 0 0 0
68 5 1 38.0458 79.8969 70.3959 0 0 0
61 5 1 41.2427 73.7593 71.9597 0 0 0
183 14 2 104.249 80.5848 75.4861 0 0 0
237 17 2 85.9747 139.239 75.3326 0 0 0
238 17 2 84.3253 143.09 75.8428 0 0 0
145 11 1 80.7443 24.5501 82.7574 0 0 0
144 11 1 80.7008 26.9396 80.0373 0 0 0
185 14 1 105.101 85.5522 80.9393 0 0 0
184 14 2 104.403 83.8066 77.1183 0 0 0
186 14 1 103.762 84.4844 82.8003 0 0 0
187 14 1 103.974 83.2113 80.4193 0 0 0
188 14 1 107.979 82.9067 78.3398 0 0 0
189 14 2 110.333 84.2433 80.9929 0 0 0
225 17 2 79.856 136.642 81.2925 0 0 0
226 17 2 77.2171 137.942 81.5888 0 0 0
234 17 1 86.7896 139.998 79.4728 0 0 0
230 17 1 79.5089 140.955 80.3546 0 0 0
227 17 1 77.9111 140.279 80.7809 0 0 0
229 17 1 82.1074 143.739 81.3274 0 0 0
231 17 2 82.4183 141.181 80.3459 0 0 0
235 17 1 88.6237 142.121 80.665 0 0 0
236 17 1 88.1273 142.614 77.7141 0 0 0
153 11 2 84.6627 14.2612 85.8416 0 0 0
154 11 2 82.4479 13.7003 89.6773 0 0 0
149 11 2 87.5647 17.6613 87.6572 0 0 0
146 11 1 83.0264 22.8543 84.3333 0 0 0
147 11 2 83.8157 21.8764 86.8003 0 0 0
148 11 2 86.4875 21.712 88.0624 0 0 0
190 14 2 109.998 84.9515 84.1663 0 0 0
191 14 2 114.801 84.9413 84.9004 0 0 0
193 14 1 111.407 91.5491 84.6352 0 0 0
195 14 2 108.183 89.6349 85.7727 0 0 0
196 14 2 110.3 92.1198 85.9305 0 0 0
194 14 1 111.186 88.6526 83.2424 0 0 0
192 14 1 114.683 89.009 84.1734 0 0 0
233 17 2 84.7045 137.802 83.6789 0 0 0
228 17 1 82.8869 140.364 83.7857 0 0 0
232 17 2 86.7129 140.448 84.4473 0 0 0
152 11 1 85.0723 14.8257 91.1419 0 0 0
151 11 1 83.9493 17.3916 90.7972 0 0 0
150 11 1 87.733 16.2434 90.0928 0 0 0
377 27 2 138.534 127.294 108.863 0 0 0
378 27 2 141.014 128.238 105.62 0 0 0
33 3 1 22.5956 175.203 110.175 0 -1 0
290 21 1 130.8 1.2926 113.5 0 0 0
292 21 1 131.682 0.276383 114.937 0 0 0
289 21 2 132.107 0.00574439 117.268 0 0 0
291 21 1 134.028 1.82513 111.59 0 0 0
369 27 1 146.219 116.392 115.544 0 0 0
376 27 1 139.244 125.201 111.865 0 0 0
374 27 1 139.591 122.913 113.567 0 0 0
375 27 1 140.807 122.371 110.858 0 0 0
371 27 2 145.594 122.668 114.673 0 0 0
373 27 2 144.426 122.822 114.025 0 0 0
372 27 2 148.812 122.31 114.808 0 0 0
370 27 1 148.481 120.383 115.573 0 0 0
41 3 2 29.6946 171.262 116.464 0 -1 0
39 3 1 30.4771 172.098 113.418 0 -1 0
40 3 1 33.1454 169.915 114.438 0 -1 0
42 3 2 28.2734 170.932 113.993 0 -1 0
31 3 1 18.3625 176.463 115.104 0 -1 0
30 3 2 23.419 177.893 114.652 0 -1 0
29 3 2 21.5499 178.471 117.492 0 -1 0
32 3 1 21.8881 179.015 112.891 0 -1 0
34 3 1 20.4514 174.536 113.06 0 -1 0
35 3 2 23.3128 175.128 111.64 0 -1 0
37 3 2 28.4035 176.12 113.767 0 -1 0
36 3 2 26.9006 173.865 110.822 0 -1 0
38 3 1 29.7832 173.624 116.058 0 -1 0
294 21 2 128.706 5.99274 122.498 0 0 0
293 21 2 129.157 3.07475 118.62 0 0 0
287 21 2 135.677 3.16313 122.179 0 0 0
286 21 1 136.607 0.281077 119.345 0 0 0
288 21 2 135.918 1.16614 119.418 0 0 0
284 21 1 136.152 2.5167 124.203 0 0 0
84 6 2 38.0967 50.6202 121.269 0 0 0
82 6 1 38.6405 55.9583 117.884 0 0 0
80 6 1 39.554 55.8478 123.468 0 0 0
81 6 1 36.6649 55.1186 121.608 0 0 0
83 6 2 37.7867 55.0455 121.142 0 0 0
79 6 2 41.7863 59.1915 122.966 0 0 0
323 24 2 165.775 57.272 123.762 0 0 0
324 24 2 167.434 58.1719 120.142 0 0 0
74 6 1 37.3405 65.3115 124.027 0 0 0
73 6 1 36.0215 66.1877 120.276 0 0 0
326 24 1 163.43 61.2417 120.85 0 0 0
328 24 1 160.949 63.5966 122.426 0 0 0
325 24 1 166.778 61.6005 120.792 0 0 0
71 6 2 31.9755 69.7456 120.746 0 0 0
72 6 2 36.1201 69.0946 119.589 0 0 0
118 9 1 20.1543 117.299 121.53 0 0 0
116 9 1 25.9744 115.891 122.248 0 0 0
117 9 1 24.638 119.665 123.423 0 0 0
113 9 2 27.6307 117.629 122.816 0 0 0
368 27 1 148.569 117.325 118.489 0 0 0
367 27 1 152.698 116.156 121.286 0 0 0
366 27 2 153.875 118.593 121.326 0 0 0
114 9 2 26.753 121.396 123.991 0 0 0
365 27 2 157.007 122.247 121.605 0 0 0
285 21 1 134.886 179.571 121.968 0 -1 0
283 21 1 132.719 1.08035 127.164 0 0 0
78 6 2 41.2516 59.1066 125.773 0 0 0
330 24 2 158.18 58.7415 125.882 0 0 0
331 24 2 155.624 56.0471 126.675 0 0 0
332 24 1 159.12 57.7602 127.144 0 0 0
333 24 1 162.016 59.6982 128.71 0 0 0
75 6 1 37.8322 62.6951 125.763 0 0 0
76 6 1 41.0207 61.6248 127.096 0 0 0
77 6 2 44.3408 62.2932 126.19 0 0 0
335 24 2 158.462 62.6394 129.053 0 0 0
327 24 1 163.193 64.3203 125.007 0 0 0
329 24 2 161.741 61.7822 126.929 0 0 0
120 9 2 19.7399 119.241 127.977 0 0 0
119 9 2 18.577 116.089 125.032 0 0 0
115 9 1 27.1134 117.594 125 0 0 0
123 9 1 19.9702 122.328 124.792 0 0 0
122 9 1 18.4142 125.871 124.705 0 0 0
124 9 1 23.2123 122.831 126.981 0 0 0
125 9 2 24.2532 120.251 126.434 0 0 0
126 9 2 21.5019 123.442 124.717 0 0 0
121 9 2 21.1955 123.17 128.809 0 0 0
281 21 2 136.819 174.914 124.824 0 -1 0
282 21 2 135.98 178.955 126.257 0 -1 0
166 12 1 64.8467 0.577026 137.278 0 0 0
165 12 1 69.4799 1.21608 136.511 0 0 0
164 12 1 71.9598 4.12633 137.569 0 0 0
207 15 1 95.6869 58.9261 137.383 0 0 0
334 24 1 160.164 59.6583 132.018 0 0 0
336 24 2 162.108 64.4212 132.558 0 0 0
251 18 2 80.5985 111.428 137.217 0 0 0
252 18 2 84.4538 113.666 138.29 0 0 0
167 12 2 65.4237 175.393 136.18 0 -1 0
162 12 2 71.7859 2.10638 142.015 0 0 0
160 12 1 74.9774 1.67404 144.532 0 0 0
163 12 2 73.8086 3.44007 139.616 0 0 0
161 12 2 73.7341 5.6077 142.353 0 0 0
210 15 2 96.9114 52.2689 141.597 0 0 0
206 15 1 96.9115 55.0743 139.299 0 0 0
205 15 2 99.0986 55.1967 139.837 0 0 0
208 15 1 95.0023 57.2102 140.722 0 0 0
209 15 2 95.502 53.6062 138.516 0 0 0
204 15 2 100.166 59.1104 140.489 0 0 0
203 15 2 103.294 62.6306 141.181 0 0 0
202 15 1 105.102 64.9914 139.713 0 0 0
201 15 1 105.662 64.0896 143.119 0 0 0
200 15 1 109.308 64.7144 144.833 0 0 0
198 15 2 108.415 60.8354 141.446 0 0 0
199 15 1 109.121 64.5146 141.646 0 0 0
197 15 2 108.143 62.5931 145.049 0 0 0
250 18 1 82.319 111.04 140.585 0 0 0
249 18 1 78.9826 114.736 139.989 0 0 0
246 18 2 85.2505 117.998 141.601 0 0 0
248 18 1 80.4776 118.511 140.023 0 0 0
247 18 2 83.4587 119.272 139.336 0 0 0
242 18 1 87.8073 119.467 142.91 0 0 0
244 18 1 82.5456 120.514 144.638 0 0 0
168 12 2 68.1609 173.831 138.696 0 -1 0
159 12 1 78.541 2.12315 146.102 0 0 0
243 18 1 85.8724 119.907 145.477 0 0 0
245 18 2 85.7616 119.951 145.822 0 0 0
241 18 1 89.5678 118.589 147.295 0 0 0
239 18 2 92.2497 120.497 148.63 0 0 0
240 18 2 88.3976 122.167 148.111 0 0 0
158 12 1 79.9693 178.321 147.537 0 -1 0
157 12 1 78.9607 176.289 151.797 0 -1 0
156 12 2 76.7201 175.813 147.791 0 -1 0
155 12 2 81.1501 174.328 146.114 0 -1 0
43 4 2 49.7348 50.6813 171.647 0 0 -1
45 4 1 42.7374 53.4447 172.285 0 0 -1
44 4 2 46.1268 53.8209 168.513 0 0 -1
349 25 2 140.183 119.799 170.778 0 0 -1
97 7 2 12.7062 126.551 172.39 0 0 -1
95 7 1 12.9738 125.054 172.307 0 0 -1
98 7 2 14.2649 122.763 169.713 0 0 -1
348 25 1 140.458 122.475 172.124 0 0 -1
350 25 2 142.144 121.235 172.048 0 0 -1
96 7 1 8.72838 127.809 172.748 0 0 -1
14 1 2 16.3988 171.768 172.957 0 -1 -1
12 1 1 14.9724 170.002 170.45 0 -1 -1
11 1 1 15.6473 172.955 168.644 0 -1 -1
10 1 1 16.9062 174.884 170.859 0 -1 -1
13 1 2 15.629 174.566 171.719 0 -1 -1
265 19 2 146.133 1.123 178.319 0 0 -1
264 19 1 141.732 2.52142 179.109 0 0 -1
266 19 2 151.225 2.95047 177.413 0 0 -1
48 4 1 37.3906 51.1203 178.443 0 0 -1
49 4 2 34.434 53.1186 177.089 0 0 -1
47 4 1 39.5484 54.2132 178.402 0 0 -1
46 4 1 39.0948 54.119 174.914 0 0 -1
52 4 1 38.1582 59.5572 178.555 0 0 -1
50 4 2 37.1782 55.8456 177.084 0 0 -1
54 4 1 43.5242 57.6189 178.096 0 0 -1
51 4 2 41.61 57.0299 179.847 0 0 -1
299 22 1 158.693 59.6314 177.076 0 0 -1
296 22 2 157.264 59.8644 179.383 0 0 -1
297 22 1 157.069 56.2577 178.965 0 0 -1
295 22 2 155.957 58.1846 176.161 0 0 -1
298 22 1 153.634 58.7734 179.399 0 0 -1
300 22 1 159.469 64.0338 176.721 0 0 -1
301 22 2 161.48 61.7041 173.449 0 0 -1
302 22 2 162.856 61.0228 177.855 0 0 -1
338 25 2 142.152 119.745 178.132 0 0 -1
339 25 1 145.5 119.89 177.96 0 0 -1
345 25 2 145.134 119.538 174.919 0 0 -1
337 25 2 146.664 116.442 179.751 0 0 -1
93 7 2 12.9059 122.917 176.769 0 0 -1
94 7 1 12.6154 125.775 176.042 0 0 -1
91 7 2 16.0044 122.795 179.201 0 0 -1
90 7 1 16.8194 126.492 177.926 0 0 -1
85 7 2 19.308 126.176 174.023 0 0 -1
86 7 2 20.8345 123.64 176.442 0 0 -1
344 25 2 146.244 123.334 174.223 0 0 -1
346 25 1 144.967 124.403 176.167 0 0 -1
347 25 1 142.949 123.91 173.408 0 0 -1
343 25 2 144.784 123.451 178.21 0 0 -1
342 25 1 147.977 123.867 179.71 0 0 -1
340 25 1 148.459 121.206 178.752 0 0 -1
89 7 1 19.4957 129.051 179.08 0 0 -1
7 1 2 15.8877 172.004 178.29 0 -1 -1
8 1 2 13.429 175.084 175.874 0 -1 -1
9 1 2 15.8717 176.843 176.406 0 -1 -1
5 1 1 18.0222 175.512 178.237 0 -1 -1
262 19 1 137.587 177.442 178.329 0 -1 -1
ITEM: TIMESTEP
10000
ITEM: NUMBER OF ATOMS
378
ITEM: BOX BOUNDS pp pp pp
0.0000000000000000e+00 1.8000000000000000e+02
0.0000000000000000e+00 1.8000000000000000e+02
0.0000000000000000e+00 1.8000000000000000e+02
ITEM: ATOMS id mol type x y z ix iy iz
265 19 2 144.684 178.688 3.62909 0 -1 0
225 17 2 72.2757 138.742 81.8378 0 0 0
192 14 1 108.172 89.9759 87.1271 0 0 0
6 1 1 19.1993 171.811 2.9691 0 -1 0
296 22 2 166.251 58.5444 6.79442 0 0 0
298 22 1 159.567 57.6165 9.44348 0 0 0
304 22 1 163.753 61.0389 7.04469 0 0 0
308 22 2 157.307 59.2701 4.27689 0 0 0
302 22 2 162.767 60.0511 12.3191 0 0 0
305 22 1 162.333 64.2844 5.38515 0 0 0
303 22 2 164.447 63.0435 10.4757 0 0 0
307 22 2 160.369 60.7384 3.42219 0 0 0
263 19 1 150.868 177.733 4.19354 0 -1 0
4 1 1 22.5677 176.906 4.51982 0 -1 0
3 1 1 22.8161 178.577 7.98292 0 -1 0
1 1 2 17.9121 175.439 5.72675 0 -1 0
2 1 2 21.6986 175.28 6.37618 0 -1 0
5 1 1 21.5499 174.046 1.95088 0 -1 0
142 11 2 88.7179 22.978 89.55 0 0 0
261 19 2 149.808 176.602 6.52952 0 -1 0
262 19 1 147.876 176.345 3.6439 0 -1 0
254 19 2 138.591 173.784 9.72281 0 -1 0
256 19 1 142.801 177.45 8.87109 0 -1 0
266 19 2 141.979 179.576 5.94146 0 -1 0
300 22 1 159.439 60.9128 7.49201 0 0 0
299 22 1 156.576 58.7064 8.23217 0 0 0
295 22 2 163.693 57.082 4.70691 0 0 0
297 22 1 163.638 56.9319 8.81141 0 0 0
176 13 2 102.03 58.9879 11.6464 0 0 0
301 22 2 160.005 61.6284 10.9384 0 0 0
255 19 1 140.703 175.937 12.241 0 -1 0
253 19 2 134.627 174.35 10.2701 0 -1 0
259 19 2 146.755 173.19 4.22275 0 -1 0
258 19 1 148.292 174.244 7.66805 0 -1 0
260 19 2 146.579 176.451 4.89632 0 -1 0
257 19 1 145.667 176.521 6.68855 0 -1 0
175 13 2 105.039 58.3525 13.4512 0 0 0
172 13 1 105.22 57.4259 17.5505 0 0 0
179 13 1 104.885 63.6871 17.525 0 0 0
182 13 2 108.743 68.0913 14.1948 0 0 0
177 13 2 103.855 60.2864 14.5478 0 0 0
178 13 1 102.917 60.5683 17.8098 0 0 0
174 13 1 105.627 57.7984 16.9651 0 0 0
180 13 1 108.126 62.772 18.605 0 0 0
181 13 2 109.756 65.2575 16.2349 0 0 0
173 13 1 104.176 55.3356 14.7809 0 0 0
221 16 1 82.6619 131.065 24.4125 0 0 0
171 13 1 107.824 57.0362 19.8499 0 0 0
170 13 2 105.565 59.7751 21.1136 0 0 0
169 13 2 103.183 61.4992 23.1694 0 0 0
223 16 2 81.4278 126.854 26.3446 0 0 0
219 16 2 88.5889 128.073 23.1406 0 0 0
220 16 1 86.3309 131.116 22.9681 0 0 0
224 16 2 78.7484 125.253 28.0581 0 0 0
222 16 1 81.252 127.966 23.1779 0 0 0
215 16 1 85.0074 133.237 30.2281 0 0 0
214 16 1 81.8472 132.041 32.099 0 0 0
140 10 2 78.8355 177.407 31.6926 0 -1 0
135 10 2 76.4601 2.10977 31.2281 0 0 0
137 10 1 77.7606 176.505 29.7772 0 -1 0
132 10 1 71.7812 0.387983 32.9934 0 0 0
131 10 1 74.6541 178.998 30.7761 0 -1 0
138 10 1 78.0582 179.874 31.6847 0 -1 0
217 16 2 85.8578 132.915 26.1003 0 0 0
218 16 2 89.4298 131.968 24.5925 0 0 0
213 16 1 84.0021 131.796 28.9003 0 0 0
212 16 2 80.8375 133.523 27.7349 0 0 0
216 16 1 84.1966 130.223 28.1683 0 0 0
211 16 2 78.9368 133.787 24.3626 0 0 0
129 10 1 74.1585 177.907 27.7161 0 -1 0
128 10 2 72.0905 176.571 25.4393 0 -1 0
130 10 1 71.0314 178.283 29.8402 0 -1 0
139 10 2 80.8022 177.919 34.3197 0 -1 0
127 10 2 70.219 177.876 28.0747 0 -1 0
136 10 1 78.0295 0.24384 28.3103 0 0 0
133 10 2 74.5084 178.986 34.7326 0 -1 0
134 10 2 74.1317 2.5346 34.0983 0 0 0
26 2 1 14.7767 27.5466 51.917 0 0 0
22 2 2 18.8373 27.5869 49.9217 0 0 0
21 2 2 22.0906 29.3423 51.0016 0 0 0
19 2 1 23.4778 27.8034 54.504 0 0 0
24 2 1 19.0353 26.5675 52.0527 0 0 0
23 2 2 16.5335 29.4686 52.3862 0 0 0
20 2 1 22.6236 25.8007 51.415 0 0 0
100 8 2 12.9677 126.754 49.6459 0 0 0
99 8 2 16.7445 128.295 50.407 0 0 0
101 8 1 13.6081 125.321 53.1347 0 0 0
107 8 2 13.2799 134.208 59.6135 0 0 0
102 8 1 10.2554 126.974 53.964 0 0 0
104 8 1 15.1831 129.778 53.5506 0 0 0
354 26 1 145.517 134.287 60.6745 0 0 0
353 26 1 142.653 136.269 58.9362 0 0 0
105 8 2 12.2039 129.104 55.6352 0 0 0
27 2 2 15.069 29.5428 49.1612 0 0 0
28 2 2 15.6686 33.152 49.7023 0 0 0
279 20 2 140.218 26.3469 65.2631 0 0 0
280 20 2 139.346 29.6089 66.5336 0 0 0
275 20 2 144.027 32.1891 63.9032 0 0 0